 VARIABLES="w" "CA" "CM" "CMinf"
Zone t="Force sur  1- Mvt de  1 11",I= 150,F=POINT
   0.3000000E+01   0.1367513E+06   0.8777569E+05   0.0000000E+00
   0.2980000E+01   0.1446208E+06   0.9045347E+05   0.0000000E+00
   0.2960000E+01   0.1362777E+06   0.8877665E+05   0.0000000E+00
   0.2940000E+01   0.1478647E+06   0.8573236E+05   0.0000000E+00
   0.2920000E+01   0.1494378E+06   0.8919745E+05   0.0000000E+00
   0.2900000E+01   0.1433396E+06   0.8582648E+05   0.0000000E+00
   0.2880000E+01   0.1572073E+06   0.8427873E+05   0.0000000E+00
   0.2860000E+01   0.1540399E+06   0.8735837E+05   0.0000000E+00
   0.2840000E+01   0.1512464E+06   0.8314429E+05   0.0000000E+00
   0.2820000E+01   0.1649960E+06   0.8286984E+05   0.0000000E+00
   0.2800000E+01   0.1596978E+06   0.8524171E+05   0.0000000E+00
   0.2780000E+01   0.1599116E+06   0.8088833E+05   0.0000000E+00
   0.2760000E+01   0.1731110E+06   0.8149348E+05   0.0000000E+00
   0.2740000E+01   0.1674604E+06   0.8346373E+05   0.0000000E+00
   0.2720000E+01   0.1696053E+06   0.7952143E+05   0.0000000E+00
   0.2700000E+01   0.1825419E+06   0.8114332E+05   0.0000000E+00
   0.2680000E+01   0.1767748E+06   0.8409377E+05   0.0000000E+00
   0.2660000E+01   0.1775567E+06   0.8342096E+05   0.0000000E+00
   0.2640000E+01   0.1702567E+06   0.9582673E+05   0.0000000E+00
   0.2620000E+01   0.8317690E+05   0.6305798E+05   0.0000000E+00
   0.2600000E+01   0.1643841E+06   0.5637437E+05   0.0000000E+00
   0.2580000E+01   0.1877972E+06   0.5969732E+05   0.0000000E+00
   0.2560000E+01   0.1936048E+06   0.6296800E+05   0.0000000E+00
   0.2540000E+01   0.1967357E+06   0.6127399E+05   0.0000000E+00
   0.2520000E+01   0.2077112E+06   0.6010963E+05   0.0000000E+00
   0.2500000E+01   0.2155447E+06   0.6155667E+05   0.0000000E+00
   0.2480000E+01   0.2058263E+06   0.6024471E+05   0.0000000E+00
   0.2460000E+01   0.2297401E+06   0.5693011E+05   0.0000000E+00
   0.2440000E+01   0.2302003E+06   0.6097045E+05   0.0000000E+00
   0.2420000E+01   0.2286744E+06   0.5674760E+05   0.0000000E+00
   0.2400000E+01   0.2448596E+06   0.5389342E+05   0.0000000E+00
   0.2380000E+01   0.2524692E+06   0.5794984E+05   0.0000000E+00
   0.2360000E+01   0.2481670E+06   0.5594285E+05   0.0000000E+00
   0.2340000E+01   0.2610581E+06   0.5098188E+05   0.0000000E+00
   0.2320000E+01   0.2770845E+06   0.5434300E+05   0.0000000E+00
   0.2300000E+01   0.2721676E+06   0.5630654E+05   0.0000000E+00
   0.2280000E+01   0.2766822E+06   0.5034611E+05   0.0000000E+00
   0.2260000E+01   0.2984478E+06   0.4982511E+05   0.0000000E+00
   0.2240000E+01   0.3032506E+06   0.5635700E+05   0.0000000E+00
   0.2220000E+01   0.2978555E+06   0.5360903E+05   0.0000000E+00
   0.2200000E+01   0.3137238E+06   0.4798324E+05   0.0000000E+00
   0.2180000E+01   0.3346250E+06   0.5295618E+05   0.0000000E+00
   0.2160000E+01   0.3303257E+06   0.5865634E+05   0.0000000E+00
   0.2140000E+01   0.3296846E+06   0.5351317E+05   0.0000000E+00
   0.2120000E+01   0.3512349E+06   0.5034245E+05   0.0000000E+00
   0.2100000E+01   0.3680388E+06   0.5862817E+05   0.0000000E+00
   0.2080000E+01   0.3609924E+06   0.6345689E+05   0.0000000E+00
   0.2060000E+01   0.3632181E+06   0.5846202E+05   0.0000000E+00
   0.2040000E+01   0.3853942E+06   0.5725391E+05   0.0000000E+00
   0.2020000E+01   0.4010042E+06   0.6713649E+05   0.0000000E+00
   0.2000000E+01   0.3934036E+06   0.7334773E+05   0.0000000E+00
   0.1980000E+01   0.3931269E+06   0.6962484E+05   0.0000000E+00
   0.1960000E+01   0.4119795E+06   0.6810862E+05   0.0000000E+00
   0.1940000E+01   0.4301015E+06   0.7776508E+05   0.0000000E+00
   0.1920000E+01   0.4249351E+06   0.8786044E+05   0.0000000E+00
   0.1900000E+01   0.4185942E+06   0.8699490E+05   0.0000000E+00
   0.1880000E+01   0.4302948E+06   0.8376580E+05   0.0000000E+00
   0.1860000E+01   0.4519456E+06   0.9012304E+05   0.0000000E+00
   0.1840000E+01   0.4548336E+06   0.1043578E+06   0.0000000E+00
   0.1820000E+01   0.4423572E+06   0.1095262E+06   0.0000000E+00
   0.1800000E+01   0.4420848E+06   0.1059519E+06   0.0000000E+00
   0.1780000E+01   0.4612843E+06   0.1059204E+06   0.0000000E+00
   0.1760000E+01   0.4791679E+06   0.1197197E+06   0.0000000E+00
   0.1740000E+01   0.4708294E+06   0.1350176E+06   0.0000000E+00
   0.1720000E+01   0.4564187E+06   0.1371274E+06   0.0000000E+00
   0.1700000E+01   0.4604882E+06   0.1323527E+06   0.0000000E+00
   0.1680000E+01   0.4842000E+06   0.1363128E+06   0.0000000E+00
   0.1660000E+01   0.4970004E+06   0.1562479E+06   0.0000000E+00
   0.1640000E+01   0.4812066E+06   0.1730305E+06   0.0000000E+00
   0.1620000E+01   0.4635573E+06   0.1741645E+06   0.0000000E+00
   0.1600000E+01   0.4686091E+06   0.1688408E+06   0.0000000E+00
   0.1580000E+01   0.4931643E+06   0.1756233E+06   0.0000000E+00
   0.1560000E+01   0.5036422E+06   0.2000963E+06   0.0000000E+00
   0.1540000E+01   0.4837754E+06   0.2215374E+06   0.0000000E+00
   0.1520000E+01   0.4599752E+06   0.2251611E+06   0.0000000E+00
   0.1500000E+01   0.4590071E+06   0.2201553E+06   0.0000000E+00
   0.1480000E+01   0.4791233E+06   0.2262755E+06   0.0000000E+00
   0.1460000E+01   0.4910858E+06   0.2516414E+06   0.0000000E+00
   0.1440000E+01   0.4730472E+06   0.2798947E+06   0.0000000E+00
   0.1420000E+01   0.4413544E+06   0.2908532E+06   0.0000000E+00
   0.1400000E+01   0.4255863E+06   0.2877972E+06   0.0000000E+00
   0.1380000E+01   0.4322512E+06   0.2891097E+06   0.0000000E+00
   0.1360000E+01   0.4430065E+06   0.3073547E+06   0.0000000E+00
   0.1340000E+01   0.4340097E+06   0.3372296E+06   0.0000000E+00
   0.1320000E+01   0.4026867E+06   0.3597869E+06   0.0000000E+00
   0.1300000E+01   0.3707471E+06   0.3654593E+06   0.0000000E+00
   0.1280000E+01   0.3552564E+06   0.3637459E+06   0.0000000E+00
   0.1260000E+01   0.3532061E+06   0.3687003E+06   0.0000000E+00
   0.1240000E+01   0.3501712E+06   0.3857266E+06   0.0000000E+00
   0.1220000E+01   0.3333630E+06   0.4082471E+06   0.0000000E+00
   0.1200000E+01   0.3034421E+06   0.4244879E+06   0.0000000E+00
   0.1180000E+01   0.2727603E+06   0.4290462E+06   0.0000000E+00
   0.1160000E+01   0.2509265E+06   0.4272200E+06   0.0000000E+00
   0.1140000E+01   0.2377314E+06   0.4270482E+06   0.0000000E+00
   0.1120000E+01   0.2269626E+06   0.4324158E+06   0.0000000E+00
   0.1100000E+01   0.2127397E+06   0.4416262E+06   0.0000000E+00
   0.1080000E+01   0.1933291E+06   0.4502589E+06   0.0000000E+00
   0.1060000E+01   0.1713503E+06   0.4544076E+06   0.0000000E+00
   0.1040000E+01   0.1508929E+06   0.4530990E+06   0.0000000E+00
   0.1020000E+01   0.1343970E+06   0.4487323E+06   0.0000000E+00
   0.1000000E+01   0.1216470E+06   0.4441372E+06   0.0000000E+00
   0.9800000E+00   0.1110145E+06   0.4407778E+06   0.0000000E+00
   0.9600000E+00   0.1009485E+06   0.4389726E+06   0.0000000E+00
   0.9400000E+00   0.9064048E+05   0.4377779E+06   0.0000000E+00
   0.9200000E+00   0.8020560E+05   0.4362361E+06   0.0000000E+00
   0.9000000E+00   0.7014402E+05   0.4336961E+06   0.0000000E+00
   0.8800000E+00   0.6097614E+05   0.4297228E+06   0.0000000E+00
   0.8600000E+00   0.5303109E+05   0.4247570E+06   0.0000000E+00
   0.8400000E+00   0.4633524E+05   0.4193771E+06   0.0000000E+00
   0.8199999E+00   0.4071449E+05   0.4140289E+06   0.0000000E+00
   0.8000000E+00   0.3591936E+05   0.4089886E+06   0.0000000E+00
   0.7800000E+00   0.3174242E+05   0.4042206E+06   0.0000000E+00
   0.7600000E+00   0.2803819E+05   0.3998682E+06   0.0000000E+00
   0.7400000E+00   0.2468750E+05   0.3957451E+06   0.0000000E+00
   0.7200000E+00   0.2162573E+05   0.3916439E+06   0.0000000E+00
   0.6999999E+00   0.1883740E+05   0.3878680E+06   0.0000000E+00
   0.6800000E+00   0.1632674E+05   0.3842431E+06   0.0000000E+00
   0.6600000E+00   0.1409750E+05   0.3807895E+06   0.0000000E+00
   0.6400000E+00   0.1214523E+05   0.3772484E+06   0.0000000E+00
   0.6200000E+00   0.1047363E+05   0.3739614E+06   0.0000000E+00
   0.6000000E+00   0.9043355E+04   0.3708374E+06   0.0000000E+00
   0.5800000E+00   0.7812645E+04   0.3676245E+06   0.0000000E+00
   0.5600000E+00   0.6748675E+04   0.3644740E+06   0.0000000E+00
   0.5400000E+00   0.5820966E+04   0.3613024E+06   0.0000000E+00
   0.5200000E+00   0.5008782E+04   0.3583295E+06   0.0000000E+00
   0.5000000E+00   0.4299159E+04   0.3555476E+06   0.0000000E+00
   0.4800000E+00   0.3683708E+04   0.3535014E+06   0.0000000E+00
   0.4600000E+00   0.3144258E+04   0.3515737E+06   0.0000000E+00
   0.4400000E+00   0.2670672E+04   0.3496271E+06   0.0000000E+00
   0.4200000E+00   0.2254622E+04   0.3477592E+06   0.0000000E+00
   0.4000000E+00   0.1889725E+04   0.3458771E+06   0.0000000E+00
   0.3800000E+00   0.1573630E+04   0.3440525E+06   0.0000000E+00
   0.3600000E+00   0.1301662E+04   0.3422527E+06   0.0000000E+00
   0.3400000E+00   0.1067911E+04   0.3402484E+06   0.0000000E+00
   0.3200000E+00   0.8685557E+03   0.3387746E+06   0.0000000E+00
   0.3000000E+00   0.6987505E+03   0.3377331E+06   0.0000000E+00
   0.2800000E+00   0.5561852E+03   0.3369414E+06   0.0000000E+00
   0.2600000E+00   0.4364669E+03   0.3358029E+06   0.0000000E+00
   0.2400000E+00   0.3369990E+03   0.3344860E+06   0.0000000E+00
   0.2200000E+00   0.2550454E+03   0.3328957E+06   0.0000000E+00
   0.2000000E+00   0.1888741E+03   0.3322630E+06   0.0000000E+00
   0.1800000E+00   0.1359988E+03   0.3318600E+06   0.0000000E+00
   0.1600000E+00   0.9439590E+02   0.3312777E+06   0.0000000E+00
   0.1400000E+00   0.6256500E+02   0.3295936E+06   0.0000000E+00
   0.1200000E+00   0.3908488E+02   0.3299434E+06   0.0000000E+00
   0.9999999E-01   0.2245296E+02   0.3294892E+06   0.0000000E+00
   0.8000000E-01   0.1142363E+02   0.3282780E+06   0.0000000E+00
   0.6000000E-01   0.4795000E+01   0.3279862E+06   0.0000000E+00
   0.4000000E-01   0.1415792E+01   0.3279434E+06   0.0000000E+00
   0.2000000E-01   0.1742475E+00   0.3189898E+06   0.0000000E+00
Zone t="Force sur  1- Mvt de  1 13",I= 150,F=POINT
   0.3000000E+01  -0.1232683E+02  -0.9948547E+01   0.0000000E+00
   0.2980000E+01   0.3023126E+02   0.4433960E+01   0.0000000E+00
   0.2960000E+01  -0.2804499E+02   0.4132507E+01   0.0000000E+00
   0.2940000E+01   0.1072982E+02  -0.1142621E+02   0.0000000E+00
   0.2920000E+01   0.1975044E+02   0.1229730E+02   0.0000000E+00
   0.2900000E+01  -0.4439180E+02  -0.1225952E+01   0.0000000E+00
   0.2880000E+01   0.3215064E+02  -0.1378821E+02   0.0000000E+00
   0.2860000E+01   0.9987965E+01   0.1909528E+02   0.0000000E+00
   0.2840000E+01  -0.5428066E+02  -0.8911011E+01   0.0000000E+00
   0.2820000E+01   0.6248657E+02  -0.1221600E+02   0.0000000E+00
   0.2800000E+01  -0.9646125E+01   0.2729059E+02   0.0000000E+00
   0.2780000E+01  -0.6578234E+02  -0.1690167E+02   0.0000000E+00
   0.2760000E+01   0.7717981E+02  -0.1180975E+02   0.0000000E+00
   0.2740000E+01  -0.1717916E+02   0.2804883E+02   0.0000000E+00
   0.2720000E+01  -0.5660272E+02  -0.1983557E+02   0.0000000E+00
   0.2700000E+01   0.8398452E+02  -0.7298096E+01   0.0000000E+00
   0.2680000E+01  -0.2856658E+02   0.3159845E+02   0.0000000E+00
   0.2660000E+01  -0.6488033E+02  -0.2434222E+02   0.0000000E+00
   0.2640000E+01   0.9383804E+02  -0.5148682E+01   0.0000000E+00
   0.2620000E+01  -0.1212585E+02   0.1633606E+02   0.0000000E+00
   0.2600000E+01  -0.6183442E+02  -0.1315704E+02   0.0000000E+00
   0.2580000E+01   0.7121075E+02  -0.1649438E+02   0.0000000E+00
   0.2560000E+01   0.7376518E+01   0.3389856E+02   0.0000000E+00
   0.2540000E+01  -0.8349255E+02  -0.7500183E+01   0.0000000E+00
   0.2520000E+01   0.3567418E+02  -0.3025116E+02   0.0000000E+00
   0.2500000E+01   0.1012250E+03   0.1937738E+02   0.0000000E+00
   0.2480000E+01  -0.3044386E+03   0.1232739E+02   0.0000000E+00
   0.2460000E+01   0.1856958E+03  -0.6140308E+02   0.0000000E+00
   0.2440000E+01   0.4415543E+02   0.8455615E+02   0.0000000E+00
   0.2420000E+01  -0.1984016E+03  -0.7868774E+01   0.0000000E+00
   0.2400000E+01   0.8558721E+02  -0.7871680E+02   0.0000000E+00
   0.2380000E+01   0.1467196E+03   0.6680566E+02   0.0000000E+00
   0.2360000E+01  -0.2047826E+03   0.3870819E+02   0.0000000E+00
   0.2340000E+01  -0.4139336E+02  -0.1070540E+03   0.0000000E+00
   0.2320000E+01   0.2900493E+03   0.1329767E+02   0.0000000E+00
   0.2300000E+01  -0.9964531E+02   0.1238541E+03   0.0000000E+00
   0.2280000E+01  -0.2756682E+03  -0.6476056E+02   0.0000000E+00
   0.2260000E+01   0.2202357E+03  -0.1164084E+03   0.0000000E+00
   0.2240000E+01   0.2050244E+03   0.1322955E+03   0.0000000E+00
   0.2220000E+01  -0.3389720E+03   0.6664911E+02   0.0000000E+00
   0.2200000E+01  -0.1256187E+03  -0.1805333E+03   0.0000000E+00
   0.2180000E+01   0.4668081E+03  -0.3286481E+02   0.0000000E+00
   0.2160000E+01   0.4581963E+01   0.2134980E+03   0.0000000E+00
   0.2140000E+01  -0.3585806E+03  -0.2403680E+02   0.0000000E+00
   0.2120000E+01   0.1597386E+03   0.1069164E+03   0.0000000E+00
   0.2100000E+01   0.1225243E+04  -0.4968352E+03   0.0000000E+00
   0.2080000E+01   0.3264204E+03   0.4803557E+03   0.0000000E+00
   0.2060000E+01  -0.9179435E+03   0.1158006E+03   0.0000000E+00
   0.2040000E+01  -0.2406313E+03  -0.4634507E+03   0.0000000E+00
   0.2020000E+01   0.1010385E+04  -0.1020041E+03   0.0000000E+00
   0.2000000E+01   0.2081443E+03   0.5046726E+03   0.0000000E+00
   0.1980000E+01  -0.9993574E+03   0.1572947E+03   0.0000000E+00
   0.1960000E+01  -0.4706776E+03  -0.5286436E+03   0.0000000E+00
   0.1940000E+01   0.1098341E+04  -0.3030461E+03   0.0000000E+00
   0.1920000E+01   0.6771115E+03   0.5610272E+03   0.0000000E+00
   0.1900000E+01  -0.9673240E+03   0.4459015E+03   0.0000000E+00
   0.1880000E+01  -0.1109209E+04  -0.4536291E+03   0.0000000E+00
   0.1860000E+01   0.7662899E+03  -0.7402725E+03   0.0000000E+00
   0.1840000E+01   0.1543801E+04   0.3421797E+03   0.0000000E+00
   0.1820000E+01  -0.3274178E+03   0.9115359E+03   0.0000000E+00
   0.1800000E+01  -0.1797736E+04   0.5980261E+02   0.0000000E+00
   0.1780000E+01  -0.5893823E+03  -0.1094964E+04   0.0000000E+00
   0.1760000E+01   0.1994887E+04  -0.5808159E+03   0.0000000E+00
   0.1740000E+01   0.1453436E+04   0.1020148E+04   0.0000000E+00
   0.1720000E+01  -0.1328873E+04   0.1134558E+04   0.0000000E+00
   0.1700000E+01  -0.2465536E+04  -0.4325155E+03   0.0000000E+00
   0.1680000E+01   0.6218240E+02  -0.1711247E+04   0.0000000E+00
   0.1660000E+01   0.2991830E+04  -0.4072916E+03   0.0000000E+00
   0.1640000E+01   0.1534733E+04   0.1662356E+04   0.0000000E+00
   0.1620000E+01  -0.2124865E+04   0.1513055E+04   0.0000000E+00
   0.1600000E+01  -0.3271724E+04  -0.7744927E+03   0.0000000E+00
   0.1580000E+01   0.1346235E+03  -0.2402420E+04   0.0000000E+00
   0.1560000E+01   0.3836476E+04  -0.7154700E+03   0.0000000E+00
   0.1540000E+01   0.2417593E+04   0.2142985E+04   0.0000000E+00
   0.1520000E+01  -0.2194396E+04   0.2355296E+04   0.0000000E+00
   0.1500000E+01  -0.4352000E+04  -0.4062511E+03   0.0000000E+00
   0.1480000E+01  -0.1239586E+04  -0.3027200E+04   0.0000000E+00
   0.1460000E+01   0.3811307E+04  -0.2075040E+04   0.0000000E+00
   0.1440000E+01   0.4392276E+04   0.1625272E+04   0.0000000E+00
   0.1420000E+01  -0.2668323E+03   0.3509110E+04   0.0000000E+00
   0.1400000E+01  -0.4569953E+04   0.1438874E+04   0.0000000E+00
   0.1380000E+01  -0.3977828E+04  -0.2275685E+04   0.0000000E+00
   0.1360000E+01   0.9270088E+03  -0.3761597E+04   0.0000000E+00
   0.1340000E+01   0.5042292E+04  -0.1187060E+04   0.0000000E+00
   0.1320000E+01   0.3771339E+04   0.2773277E+04   0.0000000E+00
   0.1300000E+01  -0.1240179E+04   0.3829492E+04   0.0000000E+00
   0.1280000E+01  -0.4752459E+04   0.1212605E+04   0.0000000E+00
   0.1260000E+01  -0.3840558E+04  -0.2438492E+04   0.0000000E+00
   0.1240000E+01   0.4263770E+03  -0.3920549E+04   0.0000000E+00
   0.1220000E+01   0.4202292E+04  -0.1886611E+04   0.0000000E+00
   0.1200000E+01   0.4110193E+04   0.1738284E+04   0.0000000E+00
   0.1180000E+01   0.6793994E+03   0.3648878E+04   0.0000000E+00
   0.1160000E+01  -0.2813379E+04   0.2567897E+04   0.0000000E+00
   0.1140000E+01  -0.3856219E+04  -0.2463638E+03   0.0000000E+00
   0.1120000E+01  -0.2164563E+04  -0.2650341E+04   0.0000000E+00
   0.1100000E+01   0.7779976E+03  -0.3085633E+04   0.0000000E+00
   0.1080000E+01   0.2868634E+04  -0.1459187E+04   0.0000000E+00
   0.1060000E+01   0.2885494E+04   0.9087552E+03   0.0000000E+00
   0.1040000E+01   0.1212812E+04   0.2416392E+04   0.0000000E+00
   0.1020000E+01  -0.8078612E+03   0.2365027E+04   0.0000000E+00
   0.1000000E+01  -0.2032256E+04   0.1111577E+04   0.0000000E+00
   0.9800000E+00  -0.2056757E+04  -0.4810173E+03   0.0000000E+00
   0.9600000E+00  -0.1146607E+04  -0.1606100E+04   0.0000000E+00
   0.9400000E+00   0.8396204E+02  -0.1855647E+04   0.0000000E+00
   0.9200000E+00   0.1038948E+04  -0.1294406E+04   0.0000000E+00
   0.9000000E+00   0.1395358E+04  -0.3197552E+03   0.0000000E+00
   0.8800000E+00   0.1162789E+04   0.5999524E+03   0.0000000E+00
   0.8600000E+00   0.5819861E+03   0.1140331E+04   0.0000000E+00
   0.8400000E+00  -0.5423956E+02   0.1208561E+04   0.0000000E+00
   0.8199999E+00  -0.5275181E+03   0.8950151E+03   0.0000000E+00
   0.8000000E+00  -0.7401705E+03   0.3868906E+03   0.0000000E+00
   0.7800000E+00  -0.7043020E+03  -0.1260467E+03   0.0000000E+00
   0.7600000E+00  -0.4984363E+03  -0.5070635E+03   0.0000000E+00
   0.7400000E+00  -0.2223727E+03  -0.6920175E+03   0.0000000E+00
   0.7200000E+00   0.3886633E+02  -0.6832460E+03   0.0000000E+00
   0.6999999E+00   0.2295386E+03  -0.5283725E+03   0.0000000E+00
   0.6800000E+00   0.3257378E+03  -0.2969833E+03   0.0000000E+00
   0.6600000E+00   0.3348215E+03  -0.5471558E+02   0.0000000E+00
   0.6400000E+00   0.2792878E+03   0.1501553E+03   0.0000000E+00
   0.6200000E+00   0.1883972E+03   0.2852504E+03   0.0000000E+00
   0.6000000E+00   0.8946362E+02   0.3457845E+03   0.0000000E+00
   0.5800000E+00  -0.6298828E-01   0.3399422E+03   0.0000000E+00
   0.5600000E+00  -0.6459723E+02   0.2837302E+03   0.0000000E+00
   0.5400000E+00  -0.1039193E+03   0.1972640E+03   0.0000000E+00
   0.5200000E+00  -0.1172779E+03   0.1020887E+03   0.0000000E+00
   0.5000000E+00  -0.1104726E+03   0.1369434E+02   0.0000000E+00
   0.4800000E+00  -0.9127072E+02  -0.5826404E+02   0.0000000E+00
   0.4600000E+00  -0.6524274E+02  -0.1063801E+03   0.0000000E+00
   0.4400000E+00  -0.3844083E+02  -0.1320778E+03   0.0000000E+00
   0.4200000E+00  -0.1452054E+02  -0.1364865E+03   0.0000000E+00
   0.4000000E+00   0.3758575E+01  -0.1242083E+03   0.0000000E+00
   0.3800000E+00   0.1654913E+02  -0.1011810E+03   0.0000000E+00
   0.3600000E+00   0.2256088E+02  -0.7329932E+02   0.0000000E+00
   0.3400000E+00   0.2484433E+02  -0.4338257E+02   0.0000000E+00
   0.3200000E+00   0.2266562E+02  -0.1835278E+02   0.0000000E+00
   0.3000000E+00   0.1917691E+02   0.4377319E+01   0.0000000E+00
   0.2800000E+00   0.1427115E+02   0.1763696E+02   0.0000000E+00
   0.2600000E+00   0.9768311E+01   0.2783984E+02   0.0000000E+00
   0.2400000E+00   0.5708801E+01   0.3026001E+02   0.0000000E+00
   0.2200000E+00   0.2748596E+01   0.2999048E+02   0.0000000E+00
   0.2000000E+00   0.6547241E+00   0.2636743E+02   0.0000000E+00
   0.1800000E+00  -0.4385834E+00   0.2046558E+02   0.0000000E+00
   0.1600000E+00  -0.8877258E+00   0.1626562E+02   0.0000000E+00
   0.1400000E+00  -0.1107758E+01   0.7626221E+01   0.0000000E+00
   0.1200000E+00  -0.6748047E+00   0.8548340E+01   0.0000000E+00
   0.9999999E-01  -0.4964905E+00   0.4491943E+01   0.0000000E+00
   0.8000000E-01  -0.2155991E+00   0.5140137E+01   0.0000000E+00
   0.6000000E-01  -0.1245880E+00   0.1165039E+01   0.0000000E+00
   0.4000000E-01  -0.3208160E-01   0.3052002E+01   0.0000000E+00
   0.2000000E-01   0.1811981E-03   0.8205078E+01   0.0000000E+00
Zone t="Force sur  1- Mvt de  1 15",I= 150,F=POINT
   0.3000000E+01   0.2052529E+06  -0.1329893E+05   0.0000000E+00
   0.2980000E+01   0.2108399E+06  -0.1005248E+05   0.0000000E+00
   0.2960000E+01   0.2029482E+06  -0.1161770E+05   0.0000000E+00
   0.2940000E+01   0.2137660E+06  -0.1350425E+05   0.0000000E+00
   0.2920000E+01   0.2138793E+06  -0.1010618E+05   0.0000000E+00
   0.2900000E+01   0.2110309E+06  -0.1262138E+05   0.0000000E+00
   0.2880000E+01   0.2215845E+06  -0.1257238E+05   0.0000000E+00
   0.2860000E+01   0.2185092E+06  -0.1067285E+05   0.0000000E+00
   0.2840000E+01   0.2199207E+06  -0.1283872E+05   0.0000000E+00
   0.2820000E+01   0.2255645E+06  -0.1205954E+05   0.0000000E+00
   0.2800000E+01   0.2239082E+06  -0.1194638E+05   0.0000000E+00
   0.2780000E+01   0.2278997E+06  -0.1254771E+05   0.0000000E+00
   0.2760000E+01   0.2287179E+06  -0.1135411E+05   0.0000000E+00
   0.2740000E+01   0.2278976E+06  -0.1184340E+05   0.0000000E+00
   0.2720000E+01   0.2314434E+06  -0.1133727E+05   0.0000000E+00
   0.2700000E+01   0.2305654E+06  -0.9803273E+04   0.0000000E+00
   0.2680000E+01   0.2305674E+06  -0.9361680E+04   0.0000000E+00
   0.2660000E+01   0.2293442E+06  -0.4224742E+04   0.0000000E+00
   0.2640000E+01   0.1896988E+06   0.7351547E+04   0.0000000E+00
   0.2620000E+01   0.1233430E+06  -0.4915614E+05   0.0000000E+00
   0.2600000E+01   0.2332673E+06  -0.4134594E+05   0.0000000E+00
   0.2580000E+01   0.2422309E+06  -0.3408096E+05   0.0000000E+00
   0.2560000E+01   0.2513195E+06  -0.3346434E+05   0.0000000E+00
   0.2540000E+01   0.2603166E+06  -0.3029078E+05   0.0000000E+00
   0.2520000E+01   0.2589635E+06  -0.2855736E+05   0.0000000E+00
   0.2500000E+01   0.2594155E+06  -0.3091189E+05   0.0000000E+00
   0.2480000E+01   0.2857407E+06  -0.3067244E+05   0.0000000E+00
   0.2460000E+01   0.2639072E+06  -0.2659615E+05   0.0000000E+00
   0.2440000E+01   0.2771144E+06  -0.3505768E+05   0.0000000E+00
   0.2420000E+01   0.2967623E+06  -0.2980893E+05   0.0000000E+00
   0.2400000E+01   0.2848022E+06  -0.2567181E+05   0.0000000E+00
   0.2380000E+01   0.2850749E+06  -0.3493180E+05   0.0000000E+00
   0.2360000E+01   0.3116809E+06  -0.3367427E+05   0.0000000E+00
   0.2340000E+01   0.3068331E+06  -0.2453746E+05   0.0000000E+00
   0.2320000E+01   0.2902390E+06  -0.3224857E+05   0.0000000E+00
   0.2300000E+01   0.3214666E+06  -0.4014838E+05   0.0000000E+00
   0.2280000E+01   0.3413041E+06  -0.2771682E+05   0.0000000E+00
   0.2260000E+01   0.3144143E+06  -0.2320486E+05   0.0000000E+00
   0.2240000E+01   0.3192352E+06  -0.4039359E+05   0.0000000E+00
   0.2220000E+01   0.3636289E+06  -0.3623053E+05   0.0000000E+00
   0.2200000E+01   0.3561010E+06  -0.1773768E+05   0.0000000E+00
   0.2180000E+01   0.3186748E+06  -0.2715545E+05   0.0000000E+00
   0.2160000E+01   0.3585071E+06  -0.4500745E+05   0.0000000E+00
   0.2140000E+01   0.3909178E+06  -0.2632341E+05   0.0000000E+00
   0.2120000E+01   0.3592672E+06  -0.4294241E+05   0.0000000E+00
   0.2100000E+01   0.2690140E+06   0.2659380E+05   0.0000000E+00
   0.2080000E+01   0.3486069E+06  -0.6546232E+05   0.0000000E+00
   0.2060000E+01   0.4719751E+06  -0.3496044E+05   0.0000000E+00
   0.2040000E+01   0.4254428E+06   0.2076945E+05   0.0000000E+00
   0.2020000E+01   0.3152126E+06  -0.5246250E+04   0.0000000E+00
   0.2000000E+01   0.3848654E+06  -0.5906537E+05   0.0000000E+00
   0.1980000E+01   0.5026311E+06  -0.2873491E+05   0.0000000E+00
   0.1960000E+01   0.4687541E+06   0.3719291E+05   0.0000000E+00
   0.1940000E+01   0.3307221E+06   0.2400746E+05   0.0000000E+00
   0.1920000E+01   0.3650079E+06  -0.5207533E+05   0.0000000E+00
   0.1900000E+01   0.5199567E+06  -0.4220969E+05   0.0000000E+00
   0.1880000E+01   0.5459268E+06   0.4337439E+05   0.0000000E+00
   0.1860000E+01   0.3814089E+06   0.7811408E+05   0.0000000E+00
   0.1840000E+01   0.3054294E+06  -0.1522380E+05   0.0000000E+00
   0.1820000E+01   0.4772594E+06  -0.6721984E+05   0.0000000E+00
   0.1800000E+01   0.6227759E+06   0.1310355E+05   0.0000000E+00
   0.1780000E+01   0.5216164E+06   0.1272102E+06   0.0000000E+00
   0.1760000E+01   0.2813215E+06   0.8935849E+05   0.0000000E+00
   0.1740000E+01   0.3256101E+06  -0.5585822E+05   0.0000000E+00
   0.1720000E+01   0.5879596E+06  -0.6614047E+05   0.0000000E+00
   0.1700000E+01   0.7062506E+06   0.8465739E+05   0.0000000E+00
   0.1680000E+01   0.4788408E+06   0.2155166E+06   0.0000000E+00
   0.1660000E+01   0.1989764E+06   0.1047775E+06   0.0000000E+00
   0.1640000E+01   0.3280291E+06  -0.8542566E+05   0.0000000E+00
   0.1620000E+01   0.6760652E+06  -0.6978848E+05   0.0000000E+00
   0.1600000E+01   0.7961489E+06   0.1526534E+06   0.0000000E+00
   0.1580000E+01   0.4810642E+06   0.3214106E+06   0.0000000E+00
   0.1560000E+01   0.1221468E+06   0.1772743E+06   0.0000000E+00
   0.1540000E+01   0.2436730E+06  -0.8749581E+05   0.0000000E+00
   0.1520000E+01   0.6805308E+06  -0.1065083E+06   0.0000000E+00
   0.1500000E+01   0.8963852E+06   0.1630507E+06   0.0000000E+00
   0.1480000E+01   0.6073838E+06   0.4306982E+06   0.0000000E+00
   0.1460000E+01   0.1161424E+06   0.3612766E+06   0.0000000E+00
   0.1440000E+01   0.4025597E+05   0.1939386E+05   0.0000000E+00
   0.1420000E+01   0.4742004E+06  -0.1582727E+06   0.0000000E+00
   0.1400000E+01   0.8894282E+06   0.4558913E+05   0.0000000E+00
   0.1380000E+01   0.8381309E+06   0.4179101E+06   0.0000000E+00
   0.1360000E+01   0.3600912E+06   0.5847546E+06   0.0000000E+00
   0.1340000E+01  -0.5913584E+05   0.3578183E+06   0.0000000E+00
   0.1320000E+01   0.3670936E+05  -0.1558054E+05   0.0000000E+00
   0.1300000E+01   0.5064092E+06  -0.1160537E+06   0.0000000E+00
   0.1280000E+01   0.8431726E+06   0.1438184E+06   0.0000000E+00
   0.1260000E+01   0.7515564E+06   0.5142954E+06   0.0000000E+00
   0.1240000E+01   0.3231238E+06   0.6799634E+06   0.0000000E+00
   0.1220000E+01  -0.7090005E+05   0.5007190E+06   0.0000000E+00
   0.1200000E+01  -0.9215359E+05   0.1560314E+06   0.0000000E+00
   0.1180000E+01   0.2195568E+06  -0.3017653E+05   0.0000000E+00
   0.1160000E+01   0.5471276E+06   0.7644939E+05   0.0000000E+00
   0.1140000E+01   0.6387310E+06   0.3577110E+06   0.0000000E+00
   0.1120000E+01   0.4596353E+06   0.6041349E+06   0.0000000E+00
   0.1100000E+01   0.1514616E+06   0.6584731E+06   0.0000000E+00
   0.1080000E+01  -0.7748347E+05   0.5059054E+06   0.0000000E+00
   0.1060000E+01  -0.1022050E+06   0.2739020E+06   0.0000000E+00
   0.1040000E+01   0.4343011E+05   0.1228001E+06   0.0000000E+00
   0.1020000E+01   0.2280683E+06   0.1238571E+06   0.0000000E+00
   0.1000000E+01   0.3372323E+06   0.2449017E+06   0.0000000E+00
   0.9800000E+00   0.3287260E+06   0.4012558E+06   0.0000000E+00
   0.9600000E+00   0.2272852E+06   0.5124541E+06   0.0000000E+00
   0.9400000E+00   0.9336361E+05   0.5372004E+06   0.0000000E+00
   0.9200000E+00  -0.1338358E+05   0.4803235E+06   0.0000000E+00
   0.9000000E+00  -0.6000110E+05   0.3804209E+06   0.0000000E+00
   0.8800000E+00  -0.4685224E+05   0.2849852E+06   0.0000000E+00
   0.8600000E+00   0.2455727E+04   0.2261130E+06   0.0000000E+00
   0.8400000E+00   0.5872179E+05   0.2140276E+06   0.0000000E+00
   0.8199999E+00   0.9987347E+05   0.2399973E+06   0.0000000E+00
   0.8000000E+00   0.1158686E+06   0.2857090E+06   0.0000000E+00
   0.7800000E+00   0.1076360E+06   0.3325371E+06   0.0000000E+00
   0.7600000E+00   0.8287200E+05   0.3661954E+06   0.0000000E+00
   0.7400000E+00   0.5142982E+05   0.3804694E+06   0.0000000E+00
   0.7200000E+00   0.2177297E+05   0.3757766E+06   0.0000000E+00
   0.6999999E+00  -0.5116797E+03   0.3565006E+06   0.0000000E+00
   0.6800000E+00  -0.1304013E+05   0.3297688E+06   0.0000000E+00
   0.6600000E+00  -0.1652840E+05   0.3018273E+06   0.0000000E+00
   0.6400000E+00  -0.1324601E+05   0.2778492E+06   0.0000000E+00
   0.6200000E+00  -0.6125062E+04   0.2609801E+06   0.0000000E+00
   0.6000000E+00   0.2073023E+04   0.2514313E+06   0.0000000E+00
   0.5800000E+00   0.9562566E+04   0.2488600E+06   0.0000000E+00
   0.5600000E+00   0.1474429E+05   0.2511373E+06   0.0000000E+00
   0.5400000E+00   0.1756106E+05   0.2563850E+06   0.0000000E+00
   0.5200000E+00   0.1792364E+05   0.2626589E+06   0.0000000E+00
   0.5000000E+00   0.1638529E+05   0.2688584E+06   0.0000000E+00
   0.4800000E+00   0.1371326E+05   0.2737132E+06   0.0000000E+00
   0.4600000E+00   0.1044999E+05   0.2767137E+06   0.0000000E+00
   0.4400000E+00   0.7187934E+04   0.2771737E+06   0.0000000E+00
   0.4200000E+00   0.4281738E+04   0.2755659E+06   0.0000000E+00
   0.4000000E+00   0.2003027E+04   0.2721713E+06   0.0000000E+00
   0.3800000E+00   0.3319492E+03   0.2679731E+06   0.0000000E+00
   0.3600000E+00  -0.6093438E+03   0.2631669E+06   0.0000000E+00
   0.3400000E+00  -0.1128598E+04   0.2581335E+06   0.0000000E+00
   0.3200000E+00  -0.1161762E+04   0.2540633E+06   0.0000000E+00
   0.3000000E+00  -0.1028090E+04   0.2507747E+06   0.0000000E+00
   0.2800000E+00  -0.7180039E+03   0.2483331E+06   0.0000000E+00
   0.2600000E+00  -0.4193789E+03   0.2461751E+06   0.0000000E+00
   0.2400000E+00  -0.1388359E+03   0.2442092E+06   0.0000000E+00
   0.2200000E+00   0.5156055E+02   0.2425899E+06   0.0000000E+00
   0.2000000E+00   0.1763535E+03   0.2425003E+06   0.0000000E+00
   0.1800000E+00   0.2181621E+03   0.2422620E+06   0.0000000E+00
   0.1600000E+00   0.2105449E+03   0.2417967E+06   0.0000000E+00
   0.1400000E+00   0.1911523E+03   0.2409684E+06   0.0000000E+00
   0.1200000E+00   0.1175938E+03   0.2411777E+06   0.0000000E+00
   0.9999999E-01   0.7838477E+02   0.2405461E+06   0.0000000E+00
   0.8000000E-01   0.3612988E+02   0.2394081E+06   0.0000000E+00
   0.6000000E-01   0.1840039E+02   0.2385801E+06   0.0000000E+00
   0.4000000E-01   0.4947266E+01   0.2376774E+06   0.0000000E+00
   0.2000000E-01   0.3476562E+00   0.2282052E+06   0.0000000E+00
Zone t="Force sur  1- Mvt de  1 22",I= 150,F=POINT
   0.3000000E+01   0.1373406E+06   0.8962880E+05   0.0000000E+00
   0.2980000E+01   0.1397135E+06   0.8898647E+05   0.0000000E+00
   0.2960000E+01   0.1421960E+06   0.8832680E+05   0.0000000E+00
   0.2940000E+01   0.1447517E+06   0.8763982E+05   0.0000000E+00
   0.2920000E+01   0.1470710E+06   0.8698826E+05   0.0000000E+00
   0.2900000E+01   0.1492828E+06   0.8631461E+05   0.0000000E+00
   0.2880000E+01   0.1517621E+06   0.8562712E+05   0.0000000E+00