 VARIABLES="w" "CA" "CM" "CMinf"
Zone t="Force sur  1- Mvt de  1 11",I=  40,F=POINT
   0.2000000E+01   0.4668081E+06   0.1599677E+06   0.0000000E+00
   0.1950000E+01   0.4943296E+06   0.1655742E+06   0.0000000E+00
   0.1900000E+01   0.5205967E+06   0.1728329E+06   0.0000000E+00
   0.1850000E+01   0.5456549E+06   0.1817805E+06   0.0000000E+00
   0.1800000E+01   0.5696821E+06   0.1925581E+06   0.0000000E+00
   0.1750000E+01   0.5928022E+06   0.2055025E+06   0.0000000E+00
   0.1700000E+01   0.6151979E+06   0.2212034E+06   0.0000000E+00
   0.1650000E+01   0.6364332E+06   0.2402850E+06   0.0000000E+00
   0.1600000E+01   0.6554359E+06   0.2634983E+06   0.0000000E+00
   0.1550000E+01   0.6715568E+06   0.2915647E+06   0.0000000E+00
   0.1500000E+01   0.6826996E+06   0.3251072E+06   0.0000000E+00
   0.1450000E+01   0.6875475E+06   0.3647830E+06   0.0000000E+00
   0.1400000E+01   0.6834325E+06   0.4102871E+06   0.0000000E+00
   0.1350000E+01   0.6686064E+06   0.4615542E+06   0.0000000E+00
   0.1300000E+01   0.6409833E+06   0.5167593E+06   0.0000000E+00
   0.1250000E+01   0.5997946E+06   0.5735414E+06   0.0000000E+00
   0.1200000E+01   0.5453661E+06   0.6286314E+06   0.0000000E+00
   0.1150000E+01   0.4801042E+06   0.6775176E+06   0.0000000E+00
   0.1100000E+01   0.4082492E+06   0.7176278E+06   0.0000000E+00
   0.1050000E+01   0.3345648E+06   0.7459426E+06   0.0000000E+00
   0.1000000E+01   0.2642810E+06   0.7610546E+06   0.0000000E+00
   0.9500000E+00   0.2014374E+06   0.7651486E+06   0.0000000E+00
   0.9000000E+00   0.1480776E+06   0.7597892E+06   0.0000000E+00
   0.8500000E+00   0.1050853E+06   0.7464776E+06   0.0000000E+00
   0.8000000E+00   0.7208372E+05   0.7278944E+06   0.0000000E+00
   0.7500001E+00   0.4779453E+05   0.7078324E+06   0.0000000E+00
   0.7000000E+00   0.3053953E+05   0.6882037E+06   0.0000000E+00
   0.6500000E+00   0.1873543E+05   0.6681840E+06   0.0000000E+00
   0.6000000E+00   0.1100079E+05   0.6496509E+06   0.0000000E+00
   0.5500000E+00   0.6141665E+04   0.6344076E+06   0.0000000E+00
   0.5000000E+00   0.3225131E+04   0.6196179E+06   0.0000000E+00
   0.4500000E+00   0.1578296E+04   0.6084991E+06   0.0000000E+00
   0.4000000E+00   0.7059526E+03   0.5980757E+06   0.0000000E+00
   0.3500000E+00   0.2826154E+03   0.5906061E+06   0.0000000E+00
   0.3000000E+00   0.9762064E+02   0.5832948E+06   0.0000000E+00
   0.2500000E+00   0.2763682E+02   0.5779619E+06   0.0000000E+00
   0.2000000E+00   0.5864249E+01   0.5738178E+06   0.0000000E+00
   0.1500000E+00   0.7900907E+00   0.5700262E+06   0.0000000E+00
   0.1000000E+00   0.4590824E-01   0.5647001E+06   0.0000000E+00
   0.5000000E-01   0.3656846E-03   0.5627049E+06   0.0000000E+00
Zone t="Force sur  1- Mvt de  1 13",I=  40,F=POINT
   0.2000000E+01  -0.4473918E+04   0.4451428E+03   0.0000000E+00
   0.1950000E+01  -0.3184331E+04  -0.8083979E+02   0.0000000E+00
   0.1900000E+01  -0.2556749E+04  -0.2625514E+03   0.0000000E+00
   0.1850000E+01  -0.2308502E+04  -0.3428309E+03   0.0000000E+00
   0.1800000E+01  -0.2211918E+04  -0.4418520E+03   0.0000000E+00
   0.1750000E+01  -0.2196476E+04  -0.4847430E+03   0.0000000E+00
   0.1700000E+01  -0.2154999E+04  -0.5229502E+03   0.0000000E+00
   0.1650000E+01  -0.2173160E+04  -0.5369332E+03   0.0000000E+00
   0.1600000E+01  -0.2283975E+04  -0.6039608E+03   0.0000000E+00
   0.1550000E+01  -0.2372889E+04  -0.7302242E+03   0.0000000E+00
   0.1500000E+01  -0.2425864E+04  -0.8229020E+03   0.0000000E+00
   0.1450000E+01  -0.2479205E+04  -0.9316829E+03   0.0000000E+00
   0.1400000E+01  -0.2552216E+04  -0.1095597E+04   0.0000000E+00
   0.1350000E+01  -0.2555822E+04  -0.1305690E+04   0.0000000E+00
   0.1300000E+01  -0.2520596E+04  -0.1498622E+04   0.0000000E+00
   0.1250000E+01  -0.2437497E+04  -0.1725395E+04   0.0000000E+00
   0.1200000E+01  -0.2309464E+04  -0.2017410E+04   0.0000000E+00
   0.1150000E+01  -0.2080389E+04  -0.2261570E+04   0.0000000E+00
   0.1100000E+01  -0.1818575E+04  -0.2471717E+04   0.0000000E+00
   0.1050000E+01  -0.1525404E+04  -0.2658404E+04   0.0000000E+00
   0.1000000E+01  -0.1216998E+04  -0.2779821E+04   0.0000000E+00
   0.9500000E+00  -0.9330012E+03  -0.2841421E+04   0.0000000E+00
   0.9000000E+00  -0.6795895E+03  -0.2843123E+04   0.0000000E+00
   0.8500000E+00  -0.4702005E+03  -0.2811259E+04   0.0000000E+00
   0.8000000E+00  -0.3102332E+03  -0.2721020E+04   0.0000000E+00
   0.7500001E+00  -0.1921123E+03  -0.2664753E+04   0.0000000E+00
   0.7000000E+00  -0.1113020E+03  -0.2550711E+04   0.0000000E+00
   0.6500000E+00  -0.5782735E+02  -0.2472325E+04   0.0000000E+00
   0.6000000E+00  -0.2587613E+02  -0.2381072E+04   0.0000000E+00
   0.5500000E+00  -0.8179915E+01  -0.2309165E+04   0.0000000E+00
   0.5000000E+00   0.1941617E+00  -0.2242033E+04   0.0000000E+00
   0.4500000E+00   0.3141178E+01  -0.2184818E+04   0.0000000E+00
   0.4000000E+00   0.3417844E+01  -0.2146636E+04   0.0000000E+00
   0.3500000E+00   0.2557390E+01  -0.2110583E+04   0.0000000E+00
   0.3000000E+00   0.1539245E+01  -0.2091921E+04   0.0000000E+00
   0.2500000E+00   0.7419629E+00  -0.2068589E+04   0.0000000E+00
   0.2000000E+00   0.2778625E+00  -0.2056251E+04   0.0000000E+00
   0.1500000E+00   0.7308383E-01  -0.2049700E+04   0.0000000E+00
   0.1000000E+00   0.1015159E-01  -0.2031495E+04   0.0000000E+00
   0.5000000E-01   0.3358895E-03  -0.2010071E+04   0.0000000E+00
Zone t="Force sur  1- Mvt de  1 15",I=  40,F=POINT
   0.2000000E+01   0.2258355E+06  -0.3699626E+06   0.0000000E+00
   0.1950000E+01   0.2157803E+06  -0.3588925E+06   0.0000000E+00
   0.1900000E+01   0.2031528E+06  -0.3476747E+06   0.0000000E+00
   0.1850000E+01   0.1879661E+06  -0.3364534E+06   0.0000000E+00
   0.1800000E+01   0.1707114E+06  -0.3255423E+06   0.0000000E+00
   0.1750000E+01   0.1511289E+06  -0.3151651E+06   0.0000000E+00
   0.1700000E+01   0.1293910E+06  -0.3057118E+06   0.0000000E+00
   0.1650000E+01   0.1060214E+06  -0.2971495E+06   0.0000000E+00
   0.1600000E+01   0.8117859E+05  -0.2898303E+06   0.0000000E+00
   0.1550000E+01   0.5525237E+05  -0.2843233E+06   0.0000000E+00
   0.1500000E+01   0.2844703E+05  -0.2811252E+06   0.0000000E+00
   0.1450000E+01   0.1421405E+04  -0.2808621E+06   0.0000000E+00
   0.1400000E+01  -0.2460166E+05  -0.2838108E+06   0.0000000E+00
   0.1350000E+01  -0.4845248E+05  -0.2903811E+06   0.0000000E+00
   0.1300000E+01  -0.6887473E+05  -0.3010432E+06   0.0000000E+00
   0.1250000E+01  -0.8460539E+05  -0.3156662E+06   0.0000000E+00
   0.1200000E+01  -0.9424607E+05  -0.3333982E+06   0.0000000E+00
   0.1150000E+01  -0.9747071E+05  -0.3528574E+06   0.0000000E+00
   0.1100000E+01  -0.9449040E+05  -0.3723329E+06   0.0000000E+00
   0.1050000E+01  -0.8631436E+05  -0.3904225E+06   0.0000000E+00
   0.1000000E+01  -0.7480023E+05  -0.4061431E+06   0.0000000E+00
   0.9500000E+00  -0.6172117E+05  -0.4175438E+06   0.0000000E+00
   0.9000000E+00  -0.4849467E+05  -0.4243531E+06   0.0000000E+00
   0.8500000E+00  -0.3644076E+05  -0.4286925E+06   0.0000000E+00
   0.8000000E+00  -0.2629440E+05  -0.4318209E+06   0.0000000E+00
   0.7500001E+00  -0.1823789E+05  -0.4313294E+06   0.0000000E+00
   0.7000000E+00  -0.1210807E+05  -0.4287201E+06   0.0000000E+00
   0.6500000E+00  -0.7677298E+04  -0.4268456E+06   0.0000000E+00
   0.6000000E+00  -0.4642979E+04  -0.4249288E+06   0.0000000E+00
   0.5500000E+00  -0.2658473E+04  -0.4207328E+06   0.0000000E+00
   0.5000000E+00  -0.1426765E+04  -0.4198791E+06   0.0000000E+00
   0.4500000E+00  -0.7116552E+03  -0.4163475E+06   0.0000000E+00
   0.4000000E+00  -0.3235494E+03  -0.4156576E+06   0.0000000E+00
   0.3500000E+00  -0.1313765E+03  -0.4129071E+06   0.0000000E+00
   0.3000000E+00  -0.4594131E+02  -0.4131079E+06   0.0000000E+00
   0.2500000E+00  -0.1314917E+02  -0.4128317E+06   0.0000000E+00
   0.2000000E+00  -0.2818433E+01  -0.4121973E+06   0.0000000E+00
   0.1500000E+00  -0.3848189E+00  -0.4118587E+06   0.0000000E+00
   0.1000000E+00  -0.2249517E-01  -0.4093873E+06   0.0000000E+00
   0.5000000E-01  -0.2144144E-03  -0.4091209E+06   0.0000000E+00
Zone t="Force sur  1- Mvt de  1 22",I=  40,F=POINT
   0.2000000E+01   0.4669252E+06   0.2388977E+06   0.0000000E+00
   0.1950000E+01   0.4960324E+06   0.2434970E+06   0.0000000E+00
   0.1900000E+01   0.5245134E+06   0.2497162E+06   0.0000000E+00
   0.1850000E+01   0.5509629E+06   0.2576220E+06   0.0000000E+00
   0.1800000E+01   0.5769486E+06   0.2673773E+06   0.0000000E+00
   0.1750000E+01   0.6033221E+06   0.2796840E+06   0.0000000E+00
   0.1700000E+01   0.6281856E+06   0.2948827E+06   0.0000000E+00
   0.1650000E+01   0.6530040E+06   0.3137997E+06   0.0000000E+00
   0.1600000E+01   0.6743155E+06   0.3367972E+06   0.0000000E+00
   0.1550000E+01   0.6933021E+06   0.3650843E+06   0.0000000E+00
   0.1500000E+01   0.7074568E+06   0.3994997E+06   0.0000000E+00
   0.1450000E+01   0.7154386E+06   0.4405837E+06   0.0000000E+00
   0.1400000E+01   0.7136095E+06   0.4876729E+06   0.0000000E+00
   0.1350000E+01   0.7002372E+06   0.5404814E+06   0.0000000E+00
   0.1300000E+01   0.6743398E+06   0.5983213E+06   0.0000000E+00
   0.1250000E+01   0.6344121E+06   0.6587809E+06   0.0000000E+00
   0.1200000E+01   0.5797139E+06   0.7172481E+06   0.0000000E+00
   0.1150000E+01   0.5133561E+06   0.7701768E+06   0.0000000E+00
   0.1100000E+01   0.4392748E+06   0.8145046E+06   0.0000000E+00
   0.1050000E+01   0.3625431E+06   0.8472191E+06   0.0000000E+00
   0.1000000E+01   0.2881606E+06   0.8650841E+06   0.0000000E+00
   0.9500000E+00   0.2211031E+06   0.8720336E+06   0.0000000E+00
   0.9000000E+00   0.1635610E+06   0.8682816E+06   0.0000000E+00
   0.8500000E+00   0.1167484E+06   0.8556062E+06   0.0000000E+00
   0.8000000E+00   0.8051505E+05   0.8371774E+06   0.0000000E+00
   0.7500001E+00   0.5362478E+05   0.8161482E+06   0.0000000E+00
   0.7000000E+00   0.3442546E+05   0.7960746E+06   0.0000000E+00
   0.6500000E+00   0.2119029E+05   0.7742511E+06   0.0000000E+00
   0.6000000E+00   0.1248569E+05   0.7549278E+06   0.0000000E+00
   0.5500000E+00   0.6987822E+04   0.7381841E+06   0.0000000E+00
   0.5000000E+00   0.3676463E+04   0.7221694E+06   0.0000000E+00
   0.4500000E+00   0.1801372E+04   0.7105337E+06   0.0000000E+00
   0.4000000E+00   0.8053871E+03   0.6990519E+06   0.0000000E+00
   0.3500000E+00   0.3216357E+03   0.6908921E+06   0.0000000E+00
   0.3000000E+00   0.1104865E+03   0.6831831E+06   0.0000000E+00
   0.2500000E+00   0.3090797E+02   0.6772639E+06   0.0000000E+00
   0.2000000E+00   0.6398937E+01   0.6728188E+06   0.0000000E+00
   0.1500000E+00   0.8125911E+00   0.6683748E+06   0.0000000E+00
   0.1000000E+00   0.3890923E-01   0.6637970E+06   0.0000000E+00
   0.5000000E-01  -0.2654828E-04   0.6613375E+06   0.0000000E+00
Zone t="Force sur  1- Mvt de  1 24",I=  40,F=POINT
   0.2000000E+01  -0.2441874E+06   0.8307167E+06   0.0000000E+00
   0.1950000E+01  -0.2308049E+06   0.8161058E+06   0.0000000E+00
   0.1900000E+01  -0.2120501E+06   0.8004718E+06   0.0000000E+00
   0.1850000E+01  -0.1912834E+06   0.7847564E+06   0.0000000E+00
   0.1800000E+01  -0.1665500E+06   0.7701257E+06   0.0000000E+00
   0.1750000E+01  -0.1362028E+06   0.7567126E+06   0.0000000E+00
   0.1700000E+01  -0.1056357E+06   0.7442792E+06   0.0000000E+00
   0.1650000E+01  -0.6819034E+05   0.7344320E+06   0.0000000E+00
   0.1600000E+01  -0.3275645E+05   0.7264078E+06   0.0000000E+00
   0.1550000E+01   0.3784582E+04   0.7220789E+06   0.0000000E+00
   0.1500000E+01   0.4161779E+05   0.7212814E+06   0.0000000E+00
   0.1450000E+01   0.7900897E+05   0.7253262E+06   0.0000000E+00
   0.1400000E+01   0.1128478E+06   0.7328628E+06   0.0000000E+00
   0.1350000E+01   0.1438302E+06   0.7460919E+06   0.0000000E+00
   0.1300000E+01   0.1702952E+06   0.7657704E+06   0.0000000E+00
   0.1250000E+01   0.1895305E+06   0.7920250E+06   0.0000000E+00
   0.1200000E+01   0.1984368E+06   0.8208971E+06   0.0000000E+00
   0.1150000E+01   0.1980312E+06   0.8540288E+06   0.0000000E+00
   0.1100000E+01   0.1875074E+06   0.8855949E+06   0.0000000E+00
   0.1050000E+01   0.1694217E+06   0.9157662E+06   0.0000000E+00
   0.1000000E+01   0.1460378E+06   0.9417924E+06   0.0000000E+00
   0.9500000E+00   0.1202663E+06   0.9603251E+06   0.0000000E+00
   0.9000000E+00   0.9479107E+05   0.9717638E+06   0.0000000E+00
   0.8500000E+00   0.7160230E+05   0.9785808E+06   0.0000000E+00
   0.8000000E+00   0.5195733E+05   0.9816099E+06   0.0000000E+00
   0.7500001E+00   0.3627817E+05   0.9798607E+06   0.0000000E+00
   0.7000000E+00   0.2428278E+05   0.9752133E+06   0.0000000E+00
   0.6500000E+00   0.1551488E+05   0.9693848E+06   0.0000000E+00
   0.6000000E+00   0.9452449E+04   0.9639646E+06   0.0000000E+00
   0.5500000E+00   0.5451159E+04   0.9563554E+06   0.0000000E+00
   0.5000000E+00   0.2943282E+04   0.9520806E+06   0.0000000E+00
   0.4500000E+00   0.1473433E+04   0.9459121E+06   0.0000000E+00
   0.4000000E+00   0.6703494E+03   0.9427741E+06   0.0000000E+00
   0.3500000E+00   0.2707190E+03   0.9376256E+06   0.0000000E+00
   0.3000000E+00   0.9334233E+02   0.9367151E+06   0.0000000E+00
   0.2500000E+00   0.2586619E+02   0.9355212E+06   0.0000000E+00
   0.2000000E+00   0.5166147E+01   0.9335990E+06   0.0000000E+00
   0.1500000E+00   0.5829006E+00   0.9328377E+06   0.0000000E+00
   0.1000000E+00   0.1392508E-01   0.9289539E+06   0.0000000E+00
   0.5000000E-01  -0.7459074E-03   0.9268816E+06   0.0000000E+00
Zone t="Force sur  1- Mvt de  1 33",I=  40,F=POINT
   0.2000000E+01   0.2705084E+04   0.3013158E+06   0.0000000E+00
   0.1950000E+01   0.3285516E+04   0.3005805E+06   0.0000000E+00
   0.1900000E+01   0.3880093E+04   0.2996900E+06   0.0000000E+00
   0.1850000E+01   0.4662807E+04   0.2986612E+06   0.0000000E+00
   0.1800000E+01   0.5681326E+04   0.2974963E+06   0.0000000E+00
   0.1750000E+01   0.6897424E+04   0.2962185E+06   0.0000000E+00
   0.1700000E+01   0.8305104E+04   0.2948449E+06   0.0000000E+00
   0.1650000E+01   0.9937802E+04   0.2933759E+06   0.0000000E+00
   0.1600000E+01   0.1197065E+05   0.2918741E+06   0.0000000E+00
   0.1550000E+01   0.1435122E+05   0.2903138E+06   0.0000000E+00
   0.1500000E+01   0.1706271E+05   0.2887687E+06   0.0000000E+00
   0.1450000E+01   0.2008651E+05   0.2872580E+06   0.0000000E+00
   0.1400000E+01   0.2344533E+05   0.2859152E+06   0.0000000E+00
   0.1350000E+01   0.2717266E+05   0.2848112E+06   0.0000000E+00
   0.1300000E+01   0.3108427E+05   0.2839769E+06   0.0000000E+00
   0.1250000E+01   0.3510580E+05   0.2835193E+06   0.0000000E+00
   0.1200000E+01   0.3920118E+05   0.2835930E+06   0.0000000E+00
   0.1150000E+01   0.4320279E+05   0.2841888E+06   0.0000000E+00
   0.1100000E+01   0.4706273E+05   0.2854352E+06   0.0000000E+00
   0.1050000E+01   0.5063870E+05   0.2874484E+06   0.0000000E+00
   0.1000000E+01   0.5380767E+05   0.2903348E+06   0.0000000E+00
   0.9500000E+00   0.5644385E+05   0.2941754E+06   0.0000000E+00
   0.9000000E+00   0.5838727E+05   0.2991648E+06   0.0000000E+00
   0.8500000E+00   0.5942882E+05   0.3052644E+06   0.0000000E+00
   0.8000000E+00   0.5940681E+05   0.3125273E+06   0.0000000E+00
   0.7500001E+00   0.5823662E+05   0.3208750E+06   0.0000000E+00
   0.7000000E+00   0.5585430E+05   0.3301676E+06   0.0000000E+00
   0.6500000E+00   0.5225036E+05   0.3401554E+06   0.0000000E+00
   0.6000000E+00   0.4754341E+05   0.3504325E+06   0.0000000E+00
   0.5500000E+00   0.4193895E+05   0.3607047E+06   0.0000000E+00
   0.5000000E+00   0.3569057E+05   0.3704708E+06   0.0000000E+00
   0.4500000E+00   0.2914851E+05   0.3792209E+06   0.0000000E+00
   0.4000000E+00   0.2266968E+05   0.3866303E+06   0.0000000E+00
   0.3500000E+00   0.1662061E+05   0.3922411E+06   0.0000000E+00
   0.3000000E+00   0.1131675E+05   0.3958699E+06   0.0000000E+00
   0.2500000E+00   0.6995259E+04   0.3974449E+06   0.0000000E+00
   0.2000000E+00   0.3779006E+04   0.3970392E+06   0.0000000E+00
   0.1500000E+00   0.1661727E+04   0.3950013E+06   0.0000000E+00
   0.1000000E+00   0.5070446E+03   0.3919725E+06   0.0000000E+00
   0.5000000E-01   0.6449890E+02   0.3869608E+06   0.0000000E+00
Zone t="Force sur  1- Mvt de  1 44",I=  40,F=POINT
   0.2000000E+01   0.1474749E+06   0.5834402E+07   0.0000000E+00
   0.1950000E+01   0.1355576E+06   0.5832903E+07   0.0000000E+00
   0.1900000E+01   0.1300321E+06   0.5828388E+07   0.0000000E+00
   0.1850000E+01   0.1280110E+06   0.5824162E+07   0.0000000E+00
   0.1800000E+01   0.1257329E+06   0.5821078E+07   0.0000000E+00
   0.1750000E+01   0.1325382E+06   0.5819162E+07   0.0000000E+00
   0.1700000E+01   0.1409336E+06   0.5819437E+07   0.0000000E+00
   0.1650000E+01   0.1527774E+06   0.5821391E+07   0.0000000E+00
   0.1600000E+01   0.1590893E+06   0.5826258E+07   0.0000000E+00
   0.1550000E+01   0.1573397E+06   0.5831350E+07   0.0000000E+00
   0.1500000E+01   0.1603336E+06   0.5841318E+07   0.0000000E+00
   0.1450000E+01   0.1518969E+06   0.5844464E+07   0.0000000E+00
   0.1400000E+01   0.1449384E+06   0.5846440E+07   0.0000000E+00
   0.1350000E+01   0.1445204E+06   0.5849242E+07   0.0000000E+00
   0.1300000E+01   0.1484707E+06   0.5856610E+07   0.0000000E+00
   0.1250000E+01   0.1466424E+06   0.5859978E+07   0.0000000E+00
   0.1200000E+01   0.1474922E+06   0.5867610E+07   0.0000000E+00
   0.1150000E+01   0.1479304E+06   0.5879430E+07   0.0000000E+00
   0.1100000E+01   0.1412375E+06   0.5893262E+07   0.0000000E+00
   0.1050000E+01   0.1314146E+06   0.5907661E+07   0.0000000E+00
   0.1000000E+01   0.1201213E+06   0.5925752E+07   0.0000000E+00
   0.9500000E+00   0.1034940E+06   0.5938998E+07   0.0000000E+00
   0.9000000E+00   0.8582401E+05   0.5950082E+07   0.0000000E+00
   0.8500000E+00   0.6906896E+05   0.5958154E+07   0.0000000E+00
   0.8000000E+00   0.5240110E+05   0.5956272E+07   0.0000000E+00
   0.7500001E+00   0.3890427E+05   0.5960612E+07   0.0000000E+00
   0.7000000E+00   0.2722948E+05   0.5957980E+07   0.0000000E+00
   0.6500000E+00   0.1833379E+05   0.5953070E+07   0.0000000E+00
   0.6000000E+00   0.1159402E+05   0.5945000E+07   0.0000000E+00
   0.5500000E+00   0.6971313E+04   0.5944042E+07   0.0000000E+00
   0.5000000E+00   0.3868697E+04   0.5934362E+07   0.0000000E+00
   0.4500000E+00   0.1970005E+04   0.5928262E+07   0.0000000E+00
   0.4000000E+00   0.9054779E+03   0.5923924E+07   0.0000000E+00
   0.3500000E+00   0.3596876E+03   0.5921050E+07   0.0000000E+00
   0.3000000E+00   0.1178651E+03   0.5916834E+07   0.0000000E+00
   0.2500000E+00   0.2856436E+02   0.5910324E+07   0.0000000E+00
   0.2000000E+00   0.3795475E+01   0.5912884E+07   0.0000000E+00
   0.1500000E+00  -0.2347856E+00   0.5913220E+07   0.0000000E+00
   0.1000000E+00  -0.1400939E+00   0.5911750E+07   0.0000000E+00
   0.5000000E-01  -0.6564267E-02   0.5895170E+07   0.0000000E+00
Zone t="Force sur  1- Mvt de  1 35",I=  40,F=POINT
   0.2000000E+01   0.3005309E+03  -0.1490493E+05   0.0000000E+00
   0.1950000E+01   0.3078144E+03  -0.1483457E+05   0.0000000E+00
   0.1900000E+01   0.3711969E+03  -0.1478209E+05   0.0000000E+00
   0.1850000E+01   0.4150588E+03  -0.1470892E+05   0.0000000E+00
   0.1800000E+01   0.3795732E+03  -0.1462779E+05   0.0000000E+00
   0.1750000E+01   0.3432755E+03  -0.1453865E+05   0.0000000E+00
   0.1700000E+01   0.3090329E+03  -0.1441525E+05   0.0000000E+00
   0.1650000E+01   0.2960565E+03  -0.1429000E+05   0.0000000E+00
   0.1600000E+01   0.2545370E+03  -0.1413319E+05   0.0000000E+00
   0.1550000E+01   0.1297214E+03  -0.1399016E+05   0.0000000E+00
   0.1500000E+01  -0.3713084E+02  -0.1381229E+05   0.0000000E+00
   0.1450000E+01  -0.1994227E+03  -0.1360892E+05   0.0000000E+00
   0.1400000E+01  -0.4130711E+03  -0.1339839E+05   0.0000000E+00
   0.1350000E+01  -0.7110169E+03  -0.1323152E+05   0.0000000E+00
   0.1300000E+01  -0.1055520E+04  -0.1307134E+05   0.0000000E+00
   0.1250000E+01  -0.1400228E+04  -0.1290170E+05   0.0000000E+00
   0.1200000E+01  -0.1769129E+04  -0.1277737E+05   0.0000000E+00
   0.1150000E+01  -0.2174397E+04  -0.1273567E+05   0.0000000E+00
   0.1100000E+01  -0.2576945E+04  -0.1273102E+05   0.0000000E+00
   0.1050000E+01  -0.2959866E+04  -0.1276216E+05   0.0000000E+00
   0.1000000E+01  -0.3329589E+04  -0.1290206E+05   0.0000000E+00
   0.9500000E+00  -0.3663871E+04  -0.1312430E+05   0.0000000E+00
   0.9000000E+00  -0.3938282E+04  -0.1342647E+05   0.0000000E+00
   0.8500000E+00  -0.4151751E+04  -0.1387856E+05   0.0000000E+00
   0.8000000E+00  -0.4278042E+04  -0.1439463E+05   0.0000000E+00
   0.7500001E+00  -0.4297093E+04  -0.1504822E+05   0.0000000E+00
   0.7000000E+00  -0.4209361E+04  -0.1577856E+05   0.0000000E+00
   0.6500000E+00  -0.4008622E+04  -0.1659911E+05   0.0000000E+00
   0.6000000E+00  -0.3704804E+04  -0.1745221E+05   0.0000000E+00
   0.5500000E+00  -0.3308615E+04  -0.1835011E+05   0.0000000E+00
   0.5000000E+00  -0.2846950E+04  -0.1916786E+05   0.0000000E+00
   0.4500000E+00  -0.2345675E+04  -0.1992360E+05   0.0000000E+00
   0.4000000E+00  -0.1838268E+04  -0.2058275E+05   0.0000000E+00
   0.3500000E+00  -0.1355804E+04  -0.2111544E+05   0.0000000E+00
   0.3000000E+00  -0.9279349E+03  -0.2143595E+05   0.0000000E+00
   0.2500000E+00  -0.5759067E+03  -0.2159414E+05   0.0000000E+00
   0.2000000E+00  -0.3120925E+03  -0.2161901E+05   0.0000000E+00
   0.1500000E+00  -0.1375566E+03  -0.2147596E+05   0.0000000E+00
   0.1000000E+00  -0.4204245E+02  -0.2122260E+05   0.0000000E+00
   0.5000000E-01  -0.5353198E+01  -0.2084791E+05   0.0000000E+00
Zone t="Force sur  1- Mvt de  1 51",I=  40,F=POINT
   0.2000000E+01   0.2241290E+06  -0.3646172E+06   0.0000000E+00
   0.1950000E+01   0.2134287E+06  -0.3535448E+06   0.0000000E+00
   0.1900000E+01   0.2000305E+06  -0.3423674E+06   0.0000000E+00
   0.1850000E+01   0.1842853E+06  -0.3313943E+06   0.0000000E+00
   0.1800000E+01   0.1663378E+06  -0.3207601E+06   0.0000000E+00
   0.1750000E+01   0.1463365E+06  -0.3107963E+06   0.0000000E+00
   0.1700000E+01   0.1244094E+06  -0.3016248E+06   0.0000000E+00
   0.1650000E+01   0.1008920E+06  -0.2934578E+06   0.0000000E+00
   0.1600000E+01   0.7590389E+05  -0.2865450E+06   0.0000000E+00
   0.1550000E+01   0.5009644E+05  -0.2815108E+06   0.0000000E+00
   0.1500000E+01   0.2323152E+05  -0.2787723E+06   0.0000000E+00
   0.1450000E+01  -0.3409945E+04  -0.2788591E+06   0.0000000E+00
   0.1400000E+01  -0.2928149E+05  -0.2822934E+06   0.0000000E+00
   0.1350000E+01  -0.5256453E+05  -0.2892823E+06   0.0000000E+00
   0.1300000E+01  -0.7232759E+05  -0.3002741E+06   0.0000000E+00
   0.1250000E+01  -0.8761519E+05  -0.3151684E+06   0.0000000E+00
   0.1200000E+01  -0.9667816E+05  -0.3330637E+06   0.0000000E+00
   0.1150000E+01  -0.9940804E+05  -0.3527472E+06   0.0000000E+00
   0.1100000E+01  -0.9579037E+05  -0.3721181E+06   0.0000000E+00
   0.1050000E+01  -0.8709090E+05  -0.3899917E+06   0.0000000E+00
   0.1000000E+01  -0.7538498E+05  -0.4057987E+06   0.0000000E+00
   0.9500000E+00  -0.6197968E+05  -0.4169569E+06   0.0000000E+00
   0.9000000E+00  -0.4837692E+05  -0.4230326E+06   0.0000000E+00
   0.8500000E+00  -0.3626331E+05  -0.4270245E+06   0.0000000E+00
   0.8000000E+00  -0.2625648E+05  -0.4305545E+06   0.0000000E+00
   0.7500001E+00  -0.1818389E+05  -0.4300278E+06   0.0000000E+00
   0.7000000E+00  -0.1201669E+05  -0.4269148E+06   0.0000000E+00
   0.6500000E+00  -0.7624794E+04  -0.4251553E+06   0.0000000E+00
   0.6000000E+00  -0.4618373E+04  -0.4234631E+06   0.0000000E+00
   0.5500000E+00  -0.2630839E+04  -0.4188372E+06   0.0000000E+00
   0.5000000E+00  -0.1416867E+04  -0.4183558E+06   0.0000000E+00
   0.4500000E+00  -0.7036172E+03  -0.4145152E+06   0.0000000E+00
   0.4000000E+00  -0.3204089E+03  -0.4140287E+06   0.0000000E+00
   0.3500000E+00  -0.1295358E+03  -0.4110622E+06   0.0000000E+00
   0.3000000E+00  -0.4536241E+02  -0.4115076E+06   0.0000000E+00
   0.2500000E+00  -0.1296515E+02  -0.4113735E+06   0.0000000E+00
   0.2000000E+00  -0.2768356E+01  -0.4107833E+06   0.0000000E+00
   0.1500000E+00  -0.3736859E+00  -0.4106127E+06   0.0000000E+00
   0.1000000E+00  -0.2117874E-01  -0.4083282E+06   0.0000000E+00
   0.5000000E-01  -0.2104533E-03  -0.4078601E+06   0.0000000E+00
Zone t="Force sur  1- Mvt de  1 53",I=  40,F=POINT
   0.2000000E+01  -0.2869680E+04  -0.4835305E+04   0.0000000E+00
   0.1950000E+01  -0.1557566E+04  -0.4650855E+04   0.0000000E+00
   0.1900000E+01  -0.9741526E+03  -0.4590021E+04   0.0000000E+00
   0.1850000E+01  -0.5742478E+03  -0.4593802E+04   0.0000000E+00
   0.1800000E+01  -0.3265451E+03  -0.4602721E+04   0.0000000E+00
   0.1750000E+01  -0.1413694E+03  -0.4647309E+04   0.0000000E+00
   0.1700000E+01   0.1052585E+03  -0.4638792E+04   0.0000000E+00
   0.1650000E+01   0.3910452E+03  -0.4695689E+04   0.0000000E+00
   0.1600000E+01   0.7050950E+03  -0.4726757E+04   0.0000000E+00
   0.1550000E+01   0.9678954E+03  -0.4747083E+04   0.0000000E+00
   0.1500000E+01   0.1177652E+04  -0.4749793E+04   0.0000000E+00
   0.1450000E+01   0.1429784E+04  -0.4669343E+04   0.0000000E+00
   0.1400000E+01   0.1707052E+04  -0.4576519E+04   0.0000000E+00
   0.1350000E+01   0.1870462E+04  -0.4486237E+04   0.0000000E+00
   0.1300000E+01   0.2039150E+04  -0.4357249E+04   0.0000000E+00
   0.1250000E+01   0.2152912E+04  -0.4161308E+04   0.0000000E+00
   0.1200000E+01   0.2268390E+04  -0.3901293E+04   0.0000000E+00
   0.1150000E+01   0.2249939E+04  -0.3711197E+04   0.0000000E+00
   0.1100000E+01   0.2211750E+04  -0.3456120E+04   0.0000000E+00
   0.1050000E+01   0.2136915E+04  -0.3162728E+04   0.0000000E+00
   0.1000000E+01   0.1987121E+04  -0.2936351E+04   0.0000000E+00
   0.9500000E+00   0.1810593E+04  -0.2673065E+04   0.0000000E+00
   0.9000000E+00   0.1611062E+04  -0.2438612E+04   0.0000000E+00
   0.8500000E+00   0.1394771E+04  -0.2287958E+04   0.0000000E+00
   0.8000000E+00   0.1174658E+04  -0.2145027E+04   0.0000000E+00
   0.7500001E+00   0.9664178E+03  -0.2022932E+04   0.0000000E+00
   0.7000000E+00   0.7714008E+03  -0.1942654E+04   0.0000000E+00
   0.6500000E+00   0.5964150E+03  -0.1906694E+04   0.0000000E+00
   0.6000000E+00   0.4445124E+03  -0.1880236E+04   0.0000000E+00
   0.5500000E+00   0.3182088E+03  -0.1916473E+04   0.0000000E+00
   0.5000000E+00   0.2165363E+03  -0.1947207E+04   0.0000000E+00
   0.4500000E+00   0.1391099E+03  -0.1983987E+04   0.0000000E+00
   0.4000000E+00   0.8335352E+02  -0.2059272E+04   0.0000000E+00
   0.3500000E+00   0.4577597E+02  -0.2132852E+04   0.0000000E+00
   0.3000000E+00   0.2243679E+02  -0.2169740E+04   0.0000000E+00
   0.2500000E+00   0.9483978E+01  -0.2243938E+04   0.0000000E+00
   0.2000000E+00   0.3240101E+01  -0.2318991E+04   0.0000000E+00
   0.1500000E+00   0.7925234E+00  -0.2340695E+04   0.0000000E+00
   0.1000000E+00   0.1066675E+00  -0.2362990E+04   0.0000000E+00
   0.5000000E-01   0.3379703E-02  -0.2349754E+04   0.0000000E+00
Zone t="Force sur  1- Mvt de  1 55",I=  40,F=POINT
   0.2000000E+01   0.1209100E+06   0.2478294E+07   0.0000000E+00
   0.1950000E+01   0.1082919E+06   0.2480543E+07   0.0000000E+00
   0.1900000E+01   0.9519804E+05   0.2482112E+07   0.0000000E+00
   0.1850000E+01   0.8444974E+05   0.2483043E+07   0.0000000E+00
   0.1800000E+01   0.7458669E+05   0.2483292E+07   0.0000000E+00
   0.1750000E+01   0.6615796E+05   0.2483355E+07   0.0000000E+00
   0.1700000E+01   0.5697088E+05   0.2483022E+07   0.0000000E+00
   0.1650000E+01   0.4754767E+05   0.2481856E+07   0.0000000E+00
   0.1600000E+01   0.4033849E+05   0.2480726E+07   0.0000000E+00
   0.1550000E+01   0.3395891E+05   0.2478707E+07   0.0000000E+00
   0.1500000E+01   0.2931722E+05   0.2476401E+07   0.0000000E+00
   0.1450000E+01   0.2464509E+05   0.2472922E+07   0.0000000E+00
   0.1400000E+01   0.2201587E+05   0.2469465E+07   0.0000000E+00
   0.1350000E+01   0.2131547E+05   0.2466666E+07   0.0000000E+00
   0.1300000E+01   0.2216426E+05   0.2464738E+07   0.0000000E+00
   0.1250000E+01   0.2341014E+05   0.2462688E+07   0.0000000E+00
   0.1200000E+01   0.2493272E+05   0.2461934E+07   0.0000000E+00
   0.1150000E+01   0.2637630E+05   0.2463298E+07   0.0000000E+00
   0.1100000E+01   0.2655984E+05   0.2465526E+07   0.0000000E+00
   0.1050000E+01   0.2536239E+05   0.2467675E+07   0.0000000E+00
   0.1000000E+01   0.2330737E+05   0.2471009E+07   0.0000000E+00
   0.9500000E+00   0.2029034E+05   0.2474166E+07   0.0000000E+00
   0.9000000E+00   0.1658594E+05   0.2475476E+07   0.0000000E+00
   0.8500000E+00   0.1300210E+05   0.2475976E+07   0.0000000E+00
   0.8000000E+00   0.9790533E+04   0.2475659E+07   0.0000000E+00
   0.7500001E+00   0.7039034E+04   0.2476346E+07   0.0000000E+00
   0.7000000E+00   0.4788535E+04   0.2474755E+07   0.0000000E+00
   0.6500000E+00   0.3118635E+04   0.2472888E+07   0.0000000E+00
   0.6000000E+00   0.1934291E+04   0.2472166E+07   0.0000000E+00
   0.5500000E+00   0.1121622E+04   0.2470487E+07   0.0000000E+00
   0.5000000E+00   0.6124906E+03   0.2468670E+07   0.0000000E+00
   0.4500000E+00   0.3070507E+03   0.2467826E+07   0.0000000E+00
   0.4000000E+00   0.1403447E+03   0.2466355E+07   0.0000000E+00
   0.3500000E+00   0.5649859E+02   0.2465720E+07   0.0000000E+00
   0.3000000E+00   0.1948478E+02   0.2465107E+07   0.0000000E+00
   0.2500000E+00   0.5385291E+01   0.2463573E+07   0.0000000E+00
   0.2000000E+00   0.1061385E+01   0.2462768E+07   0.0000000E+00
   0.1500000E+00   0.1136175E+00   0.2463546E+07   0.0000000E+00
   0.1000000E+00   0.1351416E-02   0.2462726E+07   0.0000000E+00
   0.5000000E-01  -0.1968257E-03   0.2459190E+07   0.0000000E+00
Zone t="Force sur  1- Mvt de  1 66",I=  40,F=POINT
   0.2000000E+01   0.5607042E+06   0.4394300E+07   0.0000000E+00
   0.1950000E+01   0.3902858E+06   0.4307934E+07   0.0000000E+00
   0.1900000E+01   0.2666900E+06   0.4223102E+07   0.0000000E+00
   0.1850000E+01   0.1782451E+06   0.4143447E+07   0.0000000E+00