 VARIABLES="w" "CA" "CM" "CMinf"
Zone t="Force sur  1- Mvt de  1 11",I=  40,F=POINT
   0.2000000E+01   0.3559808E+06   0.2731078E+06   0.0000000E+00
   0.1950000E+01   0.3183906E+06   0.2528905E+06   0.0000000E+00
   0.1900000E+01   0.3475067E+06   0.2133695E+06   0.0000000E+00
   0.1850000E+01   0.4737454E+06   0.1969020E+06   0.0000000E+00
   0.1800000E+01   0.5603302E+06   0.2676319E+06   0.0000000E+00
   0.1750000E+01   0.4809199E+06   0.3155115E+06   0.0000000E+00
   0.1700000E+01   0.4240597E+06   0.2907719E+06   0.0000000E+00
   0.1650000E+01   0.4666813E+06   0.2491968E+06   0.0000000E+00
   0.1600000E+01   0.5806488E+06   0.2502875E+06   0.0000000E+00
   0.1550000E+01   0.6634430E+06   0.3168515E+06   0.0000000E+00
   0.1500000E+01   0.6506276E+06   0.3991157E+06   0.0000000E+00
   0.1450000E+01   0.5881365E+06   0.4497788E+06   0.0000000E+00
   0.1400000E+01   0.5327868E+06   0.4646468E+06   0.0000000E+00
   0.1350000E+01   0.5181599E+06   0.4632911E+06   0.0000000E+00
   0.1300000E+01   0.5455035E+06   0.4781623E+06   0.0000000E+00
   0.1250000E+01   0.5786388E+06   0.5402597E+06   0.0000000E+00
   0.1200000E+01   0.5537488E+06   0.6465664E+06   0.0000000E+00
   0.1150000E+01   0.4449736E+06   0.7345907E+06   0.0000000E+00
   0.1100000E+01   0.3243254E+06   0.7549395E+06   0.0000000E+00
   0.1050000E+01   0.2500168E+06   0.7386384E+06   0.0000000E+00
   0.1000000E+01   0.2106365E+06   0.7269541E+06   0.0000000E+00
   0.9500000E+00   0.1798801E+06   0.7297020E+06   0.0000000E+00
   0.9000000E+00   0.1449936E+06   0.7371552E+06   0.0000000E+00
   0.8500000E+00   0.1069511E+06   0.7388318E+06   0.0000000E+00
   0.8000000E+00   0.7258868E+05   0.7303436E+06   0.0000000E+00
   0.7500001E+00   0.4643217E+05   0.7147480E+06   0.0000000E+00
   0.7000000E+00   0.2867474E+05   0.6958565E+06   0.0000000E+00
   0.6500000E+00   0.1729769E+05   0.6770492E+06   0.0000000E+00
   0.6000000E+00   0.1017185E+05   0.6607757E+06   0.0000000E+00
   0.5500000E+00   0.5756214E+04   0.6461595E+06   0.0000000E+00
   0.5000000E+00   0.3089589E+04   0.6333858E+06   0.0000000E+00
   0.4500000E+00   0.1540287E+04   0.6234586E+06   0.0000000E+00
   0.4000000E+00   0.7039534E+03   0.6143822E+06   0.0000000E+00
   0.3500000E+00   0.2855974E+03   0.6073948E+06   0.0000000E+00
   0.3000000E+00   0.1001476E+03   0.6016538E+06   0.0000000E+00
   0.2500000E+00   0.2866512E+02   0.5964794E+06   0.0000000E+00
   0.2000000E+00   0.6127909E+01   0.5926871E+06   0.0000000E+00
   0.1500000E+00   0.8303884E+00   0.5901458E+06   0.0000000E+00
   0.1000000E+00   0.4866435E-01   0.5842774E+06   0.0000000E+00
   0.5000000E-01   0.4210951E-03   0.5807692E+06   0.0000000E+00
Zone t="Force sur  1- Mvt de  1 13",I=  40,F=POINT
   0.2000000E+01  -0.1536330E+03  -0.2313842E+03   0.0000000E+00
   0.1950000E+01   0.4210835E+03  -0.1995766E+03   0.0000000E+00
   0.1900000E+01   0.7175453E+03   0.1948591E+03   0.0000000E+00
   0.1850000E+01  -0.1831091E+03   0.6429107E+03   0.0000000E+00
   0.1800000E+01  -0.1616304E+04   0.3540833E+02   0.0000000E+00
   0.1750000E+01  -0.6217380E+03  -0.9999798E+03   0.0000000E+00
   0.1700000E+01   0.1476491E+04  -0.8638599E+03   0.0000000E+00
   0.1650000E+01   0.2268434E+04   0.4245538E+03   0.0000000E+00
   0.1600000E+01   0.5869165E+03   0.1646488E+04   0.0000000E+00
   0.1550000E+01  -0.2192046E+04   0.1313185E+04   0.0000000E+00
   0.1500000E+01  -0.3145953E+04  -0.4948341E+03   0.0000000E+00
   0.1450000E+01  -0.1478053E+04  -0.2222838E+04   0.0000000E+00
   0.1400000E+01   0.1675377E+04  -0.2524797E+04   0.0000000E+00
   0.1350000E+01   0.4354974E+04  -0.8904550E+03   0.0000000E+00
   0.1300000E+01   0.4455455E+04   0.2345754E+04   0.0000000E+00
   0.1250000E+01   0.4311644E+03   0.5206541E+04   0.0000000E+00
   0.1200000E+01  -0.5743723E+04   0.4028438E+04   0.0000000E+00
   0.1150000E+01  -0.7702372E+04  -0.1778240E+04   0.0000000E+00
   0.1100000E+01  -0.2958910E+04  -0.6499709E+04   0.0000000E+00
   0.1050000E+01   0.3100519E+04  -0.6073853E+04   0.0000000E+00
   0.1000000E+01   0.5992895E+04  -0.2057512E+04   0.0000000E+00
   0.9500000E+00   0.5062355E+04   0.2397547E+04   0.0000000E+00
   0.9000000E+00   0.1925518E+04   0.4749881E+04   0.0000000E+00
   0.8500000E+00  -0.1015980E+04   0.4289625E+04   0.0000000E+00
   0.8000000E+00  -0.2334607E+04   0.2180621E+04   0.0000000E+00
   0.7500001E+00  -0.2146069E+04   0.8778973E+02   0.0000000E+00
   0.7000000E+00  -0.1304332E+04  -0.1105096E+04   0.0000000E+00
   0.6500000E+00  -0.5065295E+03  -0.1381530E+04   0.0000000E+00
   0.6000000E+00  -0.2462195E+02  -0.1118717E+04   0.0000000E+00
   0.5500000E+00   0.1610805E+03  -0.7039502E+03   0.0000000E+00
   0.5000000E+00   0.1749766E+03  -0.3467734E+03   0.0000000E+00
   0.4500000E+00   0.1207565E+03  -0.1783854E+03   0.0000000E+00
   0.4000000E+00   0.7378957E+02  -0.2253552E+02   0.0000000E+00
   0.3500000E+00   0.3588280E+02  -0.2315894E+02   0.0000000E+00
   0.3000000E+00   0.1459866E+02  -0.1946704E+02   0.0000000E+00
   0.2500000E+00   0.5789520E+01  -0.2392456E+01   0.0000000E+00
   0.2000000E+00   0.1811108E+01  -0.1093066E+02   0.0000000E+00
   0.1500000E+00   0.3835812E+00  -0.4023083E+02   0.0000000E+00
   0.1000000E+00   0.5262756E-01  -0.2384753E+02   0.0000000E+00
   0.5000000E-01   0.1635134E-02  -0.2649243E+02   0.0000000E+00
Zone t="Force sur  1- Mvt de  1 15",I=  40,F=POINT
   0.2000000E+01   0.9457208E+05  -0.8334605E+06   0.0000000E+00
   0.1950000E+01   0.7946778E+05  -0.8219976E+06   0.0000000E+00
   0.1900000E+01   0.6928265E+05  -0.7936933E+06   0.0000000E+00
   0.1850000E+01   0.2602979E+04  -0.7569592E+06   0.0000000E+00
   0.1800000E+01  -0.1038865E+06  -0.7670540E+06   0.0000000E+00
   0.1750000E+01  -0.9912480E+05  -0.8022498E+06   0.0000000E+00
   0.1700000E+01  -0.4303044E+05  -0.7807034E+06   0.0000000E+00
   0.1650000E+01  -0.6385238E+05  -0.7029506E+06   0.0000000E+00
   0.1600000E+01  -0.2231057E+06  -0.6401038E+06   0.0000000E+00
   0.1550000E+01  -0.4284274E+06  -0.6736664E+06   0.0000000E+00
   0.1500000E+01  -0.5151721E+06  -0.7867672E+06   0.0000000E+00
   0.1450000E+01  -0.4613593E+06  -0.8900159E+06   0.0000000E+00
   0.1400000E+01  -0.3424538E+06  -0.9178351E+06   0.0000000E+00
   0.1350000E+01  -0.2662766E+06  -0.8561826E+06   0.0000000E+00
   0.1300000E+01  -0.3283785E+06  -0.7446206E+06   0.0000000E+00
   0.1250000E+01  -0.5644912E+06  -0.6983658E+06   0.0000000E+00
   0.1200000E+01  -0.8279342E+06  -0.8719261E+06   0.0000000E+00
   0.1150000E+01  -0.8202619E+06  -0.1222848E+07   0.0000000E+00
   0.1100000E+01  -0.5136142E+06  -0.1458799E+07   0.0000000E+00
   0.1050000E+01  -0.1970322E+06  -0.1445148E+07   0.0000000E+00
   0.1000000E+01  -0.4385312E+05  -0.1289830E+07   0.0000000E+00
   0.9500000E+00  -0.5005007E+05  -0.1132461E+07   0.0000000E+00
   0.9000000E+00  -0.1345627E+06  -0.1068510E+07   0.0000000E+00
   0.8500000E+00  -0.2023152E+06  -0.1109194E+07   0.0000000E+00
   0.8000000E+00  -0.2066868E+06  -0.1198693E+07   0.0000000E+00
   0.7500001E+00  -0.1604008E+06  -0.1270577E+07   0.0000000E+00
   0.7000000E+00  -0.9942858E+05  -0.1301326E+07   0.0000000E+00
   0.6500000E+00  -0.4944430E+05  -0.1295632E+07   0.0000000E+00
   0.6000000E+00  -0.1850329E+05  -0.1265094E+07   0.0000000E+00
   0.5500000E+00  -0.3656379E+04  -0.1232943E+07   0.0000000E+00
   0.5000000E+00   0.1486850E+04  -0.1205951E+07   0.0000000E+00
   0.4500000E+00   0.2042672E+04  -0.1185186E+07   0.0000000E+00
   0.4000000E+00   0.1659500E+04  -0.1170968E+07   0.0000000E+00
   0.3500000E+00   0.9060278E+03  -0.1160792E+07   0.0000000E+00
   0.3000000E+00   0.3963076E+03  -0.1154264E+07   0.0000000E+00
   0.2500000E+00   0.1774229E+03  -0.1149899E+07   0.0000000E+00
   0.2000000E+00   0.6073889E+02  -0.1146090E+07   0.0000000E+00
   0.1500000E+00   0.1368909E+02  -0.1142630E+07   0.0000000E+00
   0.1000000E+00   0.2026398E+01  -0.1137174E+07   0.0000000E+00
   0.5000000E-01   0.6408882E-01  -0.1129671E+07   0.0000000E+00
Zone t="Force sur  1- Mvt de  1 22",I=  40,F=POINT
   0.2000000E+01   0.3559112E+06   0.2397797E+06   0.0000000E+00
   0.1950000E+01   0.3796786E+06   0.2399118E+06   0.0000000E+00
   0.1900000E+01   0.4039334E+06   0.2411472E+06   0.0000000E+00
   0.1850000E+01   0.4304832E+06   0.2444267E+06   0.0000000E+00
   0.1800000E+01   0.4570788E+06   0.2502870E+06   0.0000000E+00
   0.1750000E+01   0.4832372E+06   0.2584645E+06   0.0000000E+00
   0.1700000E+01   0.5098622E+06   0.2698596E+06   0.0000000E+00
   0.1650000E+01   0.5355418E+06   0.2850298E+06   0.0000000E+00
   0.1600000E+01   0.5594527E+06   0.3050774E+06   0.0000000E+00
   0.1550000E+01   0.5793151E+06   0.3305647E+06   0.0000000E+00
   0.1500000E+01   0.5931219E+06   0.3612543E+06   0.0000000E+00
   0.1450000E+01   0.6005327E+06   0.3977537E+06   0.0000000E+00
   0.1400000E+01   0.5992083E+06   0.4394902E+06   0.0000000E+00
   0.1350000E+01   0.5873811E+06   0.4866497E+06   0.0000000E+00
   0.1300000E+01   0.5624259E+06   0.5369016E+06   0.0000000E+00
   0.1250000E+01   0.5243852E+06   0.5880118E+06   0.0000000E+00
   0.1200000E+01   0.4752289E+06   0.6353282E+06   0.0000000E+00
   0.1150000E+01   0.4184280E+06   0.6767526E+06   0.0000000E+00
   0.1100000E+01   0.3571913E+06   0.7110972E+06   0.0000000E+00
   0.1050000E+01   0.2947250E+06   0.7357518E+06   0.0000000E+00
   0.1000000E+01   0.2344629E+06   0.7503598E+06   0.0000000E+00
   0.9500000E+00   0.1796816E+06   0.7552386E+06   0.0000000E+00
   0.9000000E+00   0.1331190E+06   0.7506101E+06   0.0000000E+00
   0.8500000E+00   0.9565642E+05   0.7397262E+06   0.0000000E+00
   0.8000000E+00   0.6669772E+05   0.7251725E+06   0.0000000E+00
   0.7500001E+00   0.4498355E+05   0.7092147E+06   0.0000000E+00
   0.7000000E+00   0.2926070E+05   0.6922738E+06   0.0000000E+00
   0.6500000E+00   0.1827821E+05   0.6753991E+06   0.0000000E+00
   0.6000000E+00   0.1090478E+05   0.6602909E+06   0.0000000E+00
   0.5500000E+00   0.6166024E+04   0.6461722E+06   0.0000000E+00
   0.5000000E+00   0.3277462E+04   0.6335269E+06   0.0000000E+00
   0.4500000E+00   0.1619564E+04   0.6235576E+06   0.0000000E+00
   0.4000000E+00   0.7309805E+03   0.6144721E+06   0.0000000E+00
   0.3500000E+00   0.2947763E+03   0.6074191E+06   0.0000000E+00
   0.3000000E+00   0.1025533E+03   0.6016434E+06   0.0000000E+00
   0.2500000E+00   0.2919489E+02   0.5964780E+06   0.0000000E+00
   0.2000000E+00   0.6221877E+01   0.5926782E+06   0.0000000E+00
   0.1500000E+00   0.8425742E+00   0.5901095E+06   0.0000000E+00
   0.1000000E+00   0.4918041E-01   0.5842613E+06   0.0000000E+00
   0.5000000E-01   0.4095265E-03   0.5807513E+06   0.0000000E+00
Zone t="Force sur  1- Mvt de  1 24",I=  40,F=POINT
   0.2000000E+01  -0.1007827E+06   0.8327425E+06   0.0000000E+00
   0.1950000E+01  -0.7341094E+05   0.8162781E+06   0.0000000E+00
   0.1900000E+01  -0.4542564E+05   0.7990526E+06   0.0000000E+00
   0.1850000E+01  -0.9923068E+04   0.7826786E+06   0.0000000E+00
   0.1800000E+01   0.3025168E+05   0.7669402E+06   0.0000000E+00
   0.1750000E+01   0.7467627E+05   0.7524876E+06   0.0000000E+00
   0.1700000E+01   0.1242180E+06   0.7407462E+06   0.0000000E+00
   0.1650000E+01   0.1783965E+06   0.7322796E+06   0.0000000E+00
   0.1600000E+01   0.2374439E+06   0.7297140E+06   0.0000000E+00
   0.1550000E+01   0.2970173E+06   0.7333435E+06   0.0000000E+00
   0.1500000E+01   0.3546439E+06   0.7441451E+06   0.0000000E+00
   0.1450000E+01   0.4106306E+06   0.7654006E+06   0.0000000E+00
   0.1400000E+01   0.4606221E+06   0.7974295E+06   0.0000000E+00
   0.1350000E+01   0.4994401E+06   0.8405050E+06   0.0000000E+00
   0.1300000E+01   0.5222391E+06   0.8930852E+06   0.0000000E+00
   0.1250000E+01   0.5271150E+06   0.9546751E+06   0.0000000E+00
   0.1200000E+01   0.5132883E+06   0.1020859E+07   0.0000000E+00
   0.1150000E+01   0.4816212E+06   0.1085034E+07   0.0000000E+00
   0.1100000E+01   0.4353848E+06   0.1145306E+07   0.0000000E+00
   0.1050000E+01   0.3785361E+06   0.1198466E+07   0.0000000E+00
   0.1000000E+01   0.3156972E+06   0.1239047E+07   0.0000000E+00
   0.9500000E+00   0.2523077E+06   0.1264256E+07   0.0000000E+00
   0.9000000E+00   0.1942693E+06   0.1278184E+07   0.0000000E+00
   0.8500000E+00   0.1445973E+06   0.1282164E+07   0.0000000E+00
   0.8000000E+00   0.1041068E+06   0.1277873E+07   0.0000000E+00
   0.7500001E+00   0.7222673E+05   0.1265224E+07   0.0000000E+00
   0.7000000E+00   0.4821171E+05   0.1251226E+07   0.0000000E+00
   0.6500000E+00   0.3082944E+05   0.1237594E+07   0.0000000E+00
   0.6000000E+00   0.1877909E+05   0.1219516E+07   0.0000000E+00
   0.5500000E+00   0.1081817E+05   0.1204808E+07   0.0000000E+00
   0.5000000E+00   0.5846643E+04   0.1192322E+07   0.0000000E+00
   0.4500000E+00   0.2931452E+04   0.1178238E+07   0.0000000E+00
   0.4000000E+00   0.1340150E+04   0.1170220E+07   0.0000000E+00
   0.3500000E+00   0.5463998E+03   0.1159916E+07   0.0000000E+00
   0.3000000E+00   0.1918879E+03   0.1153471E+07   0.0000000E+00
   0.2500000E+00   0.5505669E+02   0.1149806E+07   0.0000000E+00
   0.2000000E+00   0.1180556E+02   0.1145637E+07   0.0000000E+00
   0.1500000E+00   0.1606934E+01   0.1140957E+07   0.0000000E+00
   0.1000000E+00   0.9399142E-01   0.1136183E+07   0.0000000E+00
   0.5000000E-01   0.8127211E-03   0.1128574E+07   0.0000000E+00
Zone t="Force sur  1- Mvt de  1 33",I=  40,F=POINT
   0.2000000E+01   0.3820145E+03   0.2342765E+06   0.0000000E+00
   0.1950000E+01   0.2749395E+03   0.2341256E+06   0.0000000E+00
   0.1900000E+01   0.4717024E+03   0.2337635E+06   0.0000000E+00
   0.1850000E+01   0.6073052E+03   0.2333496E+06   0.0000000E+00
   0.1800000E+01   0.5689179E+03   0.2330261E+06   0.0000000E+00
   0.1750000E+01   0.5360715E+03   0.2326890E+06   0.0000000E+00
   0.1700000E+01   0.6355381E+03   0.2322019E+06   0.0000000E+00
   0.1650000E+01   0.9926465E+03   0.2315581E+06   0.0000000E+00
   0.1600000E+01   0.9173039E+03   0.2309388E+06   0.0000000E+00
   0.1550000E+01   0.1137086E+04   0.2302261E+06   0.0000000E+00
   0.1500000E+01   0.1819862E+04   0.2294740E+06   0.0000000E+00
   0.1450000E+01   0.3097223E+04   0.2286209E+06   0.0000000E+00
   0.1400000E+01   0.3290969E+04   0.2276449E+06   0.0000000E+00
   0.1350000E+01   0.3683714E+04   0.2265612E+06   0.0000000E+00
   0.1300000E+01   0.4975558E+04   0.2254670E+06   0.0000000E+00
   0.1250000E+01   0.7444435E+04   0.2244250E+06   0.0000000E+00
   0.1200000E+01   0.8711706E+04   0.2225321E+06   0.0000000E+00
   0.1150000E+01   0.1125897E+05   0.2216824E+06   0.0000000E+00
   0.1100000E+01   0.1438147E+05   0.2222638E+06   0.0000000E+00
   0.1050000E+01   0.1621614E+05   0.2223728E+06   0.0000000E+00
   0.1000000E+01   0.1753812E+05   0.2225040E+06   0.0000000E+00
   0.9500000E+00   0.1938135E+05   0.2236606E+06   0.0000000E+00
   0.9000000E+00   0.2100268E+05   0.2235793E+06   0.0000000E+00
   0.8500000E+00   0.2301156E+05   0.2247154E+06   0.0000000E+00
   0.8000000E+00   0.2513837E+05   0.2277041E+06   0.0000000E+00
   0.7500001E+00   0.2643384E+05   0.2306809E+06   0.0000000E+00
   0.7000000E+00   0.2688257E+05   0.2368397E+06   0.0000000E+00
   0.6500000E+00   0.2611103E+05   0.2415704E+06   0.0000000E+00
   0.6000000E+00   0.2439525E+05   0.2484387E+06   0.0000000E+00
   0.5500000E+00   0.2189904E+05   0.2540691E+06   0.0000000E+00
   0.5000000E+00   0.1891438E+05   0.2597030E+06   0.0000000E+00
   0.4500000E+00   0.1566086E+05   0.2655568E+06   0.0000000E+00
   0.4000000E+00   0.1235626E+05   0.2700543E+06   0.0000000E+00
   0.3500000E+00   0.9196552E+04   0.2735283E+06   0.0000000E+00
   0.3000000E+00   0.6354675E+04   0.2762310E+06   0.0000000E+00
   0.2500000E+00   0.3982013E+04   0.2773753E+06   0.0000000E+00
   0.2000000E+00   0.2176513E+04   0.2774841E+06   0.0000000E+00
   0.1500000E+00   0.9660599E+03   0.2766689E+06   0.0000000E+00
   0.1000000E+00   0.2967520E+03   0.2749505E+06   0.0000000E+00
   0.5000000E-01   0.3789993E+02   0.2711571E+06   0.0000000E+00
Zone t="Force sur  1- Mvt de  1 44",I=  40,F=POINT
   0.2000000E+01  -0.9192611E+04   0.4667952E+07   0.0000000E+00
   0.1950000E+01  -0.2289511E+05   0.4652033E+07   0.0000000E+00
   0.1900000E+01  -0.2797457E+05   0.4632464E+07   0.0000000E+00
   0.1850000E+01  -0.3779215E+05   0.4610748E+07   0.0000000E+00
   0.1800000E+01  -0.3604412E+05   0.4586630E+07   0.0000000E+00
   0.1750000E+01  -0.2387259E+05   0.4561904E+07   0.0000000E+00
   0.1700000E+01  -0.1535325E+03   0.4534531E+07   0.0000000E+00
   0.1650000E+01   0.3962327E+05   0.4506816E+07   0.0000000E+00
   0.1600000E+01   0.8149917E+05   0.4477754E+07   0.0000000E+00
   0.1550000E+01   0.1340620E+06   0.4453144E+07   0.0000000E+00
   0.1500000E+01   0.1964698E+06   0.4438515E+07   0.0000000E+00
   0.1450000E+01   0.2688713E+06   0.4430534E+07   0.0000000E+00
   0.1400000E+01   0.3470173E+06   0.4436150E+07   0.0000000E+00
   0.1350000E+01   0.4180059E+06   0.4454298E+07   0.0000000E+00
   0.1300000E+01   0.4789224E+06   0.4492501E+07   0.0000000E+00
   0.1250000E+01   0.5258004E+06   0.4547366E+07   0.0000000E+00
   0.1200000E+01   0.5516540E+06   0.4615260E+07   0.0000000E+00
   0.1150000E+01   0.5511866E+06   0.4688530E+07   0.0000000E+00
   0.1100000E+01   0.5278209E+06   0.4770510E+07   0.0000000E+00
   0.1050000E+01   0.4842912E+06   0.4849959E+07   0.0000000E+00
   0.1000000E+01   0.4232357E+06   0.4915730E+07   0.0000000E+00
   0.9500000E+00   0.3522868E+06   0.4967876E+07   0.0000000E+00
   0.9000000E+00   0.2820978E+06   0.5002767E+07   0.0000000E+00
   0.8500000E+00   0.2176020E+06   0.5022496E+07   0.0000000E+00
   0.8000000E+00   0.1618752E+06   0.5032834E+07   0.0000000E+00
   0.7500001E+00   0.1153751E+06   0.5023858E+07   0.0000000E+00
   0.7000000E+00   0.7904348E+05   0.5013694E+07   0.0000000E+00
   0.6500000E+00   0.5179573E+05   0.4997837E+07   0.0000000E+00
   0.6000000E+00   0.3217332E+05   0.4981108E+07   0.0000000E+00
   0.5500000E+00   0.1888899E+05   0.4959614E+07   0.0000000E+00
   0.5000000E+00   0.1038844E+05   0.4943360E+07   0.0000000E+00
   0.4500000E+00   0.5278252E+04   0.4925958E+07   0.0000000E+00
   0.4000000E+00   0.2446855E+04   0.4912643E+07   0.0000000E+00
   0.3500000E+00   0.1007678E+04   0.4898065E+07   0.0000000E+00
   0.3000000E+00   0.3572297E+03   0.4889654E+07   0.0000000E+00
   0.2500000E+00   0.1034045E+03   0.4884432E+07   0.0000000E+00
   0.2000000E+00   0.2233554E+02   0.4877605E+07   0.0000000E+00
   0.1500000E+00   0.3042994E+01   0.4872976E+07   0.0000000E+00
   0.1000000E+00   0.1835624E+00   0.4876586E+07   0.0000000E+00
   0.5000000E-01   0.1376514E-02   0.4850054E+07   0.0000000E+00
Zone t="Force sur  1- Mvt de  1 35",I=  40,F=POINT
   0.2000000E+01   0.1523521E+05   0.9370970E+07   0.0000000E+00
   0.1950000E+01   0.1111793E+05   0.9364978E+07   0.0000000E+00
   0.1900000E+01   0.1896480E+05   0.9350569E+07   0.0000000E+00
   0.1850000E+01   0.2429712E+05   0.9333985E+07   0.0000000E+00
   0.1800000E+01   0.2292164E+05   0.9321045E+07   0.0000000E+00
   0.1750000E+01   0.2154876E+05   0.9307754E+07   0.0000000E+00
   0.1700000E+01   0.2500232E+05   0.9288318E+07   0.0000000E+00
   0.1650000E+01   0.3886696E+05   0.9262171E+07   0.0000000E+00
   0.1600000E+01   0.3642663E+05   0.9236798E+07   0.0000000E+00
   0.1550000E+01   0.4668727E+05   0.9208335E+07   0.0000000E+00
   0.1500000E+01   0.7474792E+05   0.9179277E+07   0.0000000E+00
   0.1450000E+01   0.1249078E+06   0.9146393E+07   0.0000000E+00
   0.1400000E+01   0.1303028E+06   0.9107787E+07   0.0000000E+00
   0.1350000E+01   0.1435339E+06   0.9063214E+07   0.0000000E+00
   0.1300000E+01   0.1948040E+06   0.9016433E+07   0.0000000E+00
   0.1250000E+01   0.2973460E+06   0.8971661E+07   0.0000000E+00
   0.1200000E+01   0.3548211E+06   0.8896856E+07   0.0000000E+00
   0.1150000E+01   0.4594164E+06   0.8869404E+07   0.0000000E+00
   0.1100000E+01   0.5789314E+06   0.8898638E+07   0.0000000E+00
   0.1050000E+01   0.6445854E+06   0.8902865E+07   0.0000000E+00
   0.1000000E+01   0.6932952E+06   0.8902995E+07   0.0000000E+00
   0.9500000E+00   0.7680045E+06   0.8943002E+07   0.0000000E+00
   0.9000000E+00   0.8372351E+06   0.8936113E+07   0.0000000E+00
   0.8500000E+00   0.9220177E+06   0.8982003E+07   0.0000000E+00
   0.8000000E+00   0.1009232E+07   0.9104702E+07   0.0000000E+00
   0.7500001E+00   0.1060856E+07   0.9227086E+07   0.0000000E+00
   0.7000000E+00   0.1077493E+07   0.9475428E+07   0.0000000E+00
   0.6500000E+00   0.1045312E+07   0.9665177E+07   0.0000000E+00
   0.6000000E+00   0.9758571E+06   0.9939508E+07   0.0000000E+00
   0.5500000E+00   0.8756824E+06   0.1016402E+08   0.0000000E+00
   0.5000000E+00   0.7562705E+06   0.1038877E+08   0.0000000E+00
   0.4500000E+00   0.6262035E+06   0.1062253E+08   0.0000000E+00
   0.4000000E+00   0.4941165E+06   0.1080225E+08   0.0000000E+00
   0.3500000E+00   0.3677944E+06   0.1094115E+08   0.0000000E+00
   0.3000000E+00   0.2541583E+06   0.1104924E+08   0.0000000E+00
   0.2500000E+00   0.1592695E+06   0.1109504E+08   0.0000000E+00
   0.2000000E+00   0.8705705E+05   0.1109941E+08   0.0000000E+00
   0.1500000E+00   0.3864161E+05   0.1106682E+08   0.0000000E+00
   0.1000000E+00   0.1186998E+05   0.1099808E+08   0.0000000E+00
   0.5000000E-01   0.1515994E+04   0.1084635E+08   0.0000000E+00
Zone t="Force sur  1- Mvt de  1 51",I=  40,F=POINT
   0.2000000E+01   0.9408662E+05  -0.8353532E+06   0.0000000E+00
   0.1950000E+01   0.8830784E+05  -0.8210232E+06   0.0000000E+00
   0.1900000E+01   0.7805677E+05  -0.7893659E+06   0.0000000E+00
   0.1850000E+01   0.2022119E+04  -0.7480908E+06   0.0000000E+00
   0.1800000E+01  -0.1136023E+06  -0.7646014E+06   0.0000000E+00
   0.1750000E+01  -0.9857733E+05  -0.8040140E+06   0.0000000E+00
   0.1700000E+01  -0.3738888E+05  -0.7796324E+06   0.0000000E+00
   0.1650000E+01  -0.5771045E+05  -0.6996368E+06   0.0000000E+00
   0.1600000E+01  -0.2209080E+06  -0.6333711E+06   0.0000000E+00
   0.1550000E+01  -0.4316941E+06  -0.6685673E+06   0.0000000E+00
   0.1500000E+01  -0.5174875E+06  -0.7855416E+06   0.0000000E+00
   0.1450000E+01  -0.4602179E+06  -0.8891576E+06   0.0000000E+00
   0.1400000E+01  -0.3388418E+06  -0.9172140E+06   0.0000000E+00
   0.1350000E+01  -0.2601802E+06  -0.8534701E+06   0.0000000E+00
   0.1300000E+01  -0.3234922E+06  -0.7392967E+06   0.0000000E+00
   0.1250000E+01  -0.5628024E+06  -0.6918132E+06   0.0000000E+00
   0.1200000E+01  -0.8313600E+06  -0.8654831E+06   0.0000000E+00
   0.1150000E+01  -0.8249868E+06  -0.1220928E+07   0.0000000E+00
   0.1100000E+01  -0.5142477E+06  -0.1459767E+07   0.0000000E+00
   0.1050000E+01  -0.1935575E+06  -0.1445660E+07   0.0000000E+00
   0.1000000E+01  -0.3814347E+05  -0.1287290E+07   0.0000000E+00
   0.9500000E+00  -0.4504519E+05  -0.1126408E+07   0.0000000E+00
   0.9000000E+00  -0.1321467E+06  -0.1060603E+07   0.0000000E+00
   0.8500000E+00  -0.2023834E+06  -0.1101848E+07   0.0000000E+00
   0.8000000E+00  -0.2078556E+06  -0.1193010E+07   0.0000000E+00
   0.7500001E+00  -0.1615754E+06  -0.1265986E+07   0.0000000E+00
   0.7000000E+00  -0.1002436E+06  -0.1298127E+07   0.0000000E+00
   0.6500000E+00  -0.4974169E+05  -0.1292586E+07   0.0000000E+00
   0.6000000E+00  -0.1855053E+05  -0.1261904E+07   0.0000000E+00
   0.5500000E+00  -0.3651084E+04  -0.1229660E+07   0.0000000E+00
   0.5000000E+00   0.1384085E+04  -0.1202826E+07   0.0000000E+00
   0.4500000E+00   0.2207676E+04  -0.1180300E+07   0.0000000E+00
   0.4000000E+00   0.1681297E+04  -0.1168184E+07   0.0000000E+00
   0.3500000E+00   0.9248419E+03  -0.1156823E+07   0.0000000E+00
   0.3000000E+00   0.4024921E+03  -0.1150177E+07   0.0000000E+00
   0.2500000E+00   0.1846804E+03  -0.1146781E+07   0.0000000E+00
   0.2000000E+00   0.6371712E+02  -0.1143216E+07   0.0000000E+00
   0.1500000E+00   0.1376977E+02  -0.1138845E+07   0.0000000E+00
   0.1000000E+00   0.2161063E+01  -0.1134505E+07   0.0000000E+00
   0.5000000E-01   0.7161525E-01  -0.1125870E+07   0.0000000E+00
Zone t="Force sur  1- Mvt de  1 53",I=  40,F=POINT
   0.2000000E+01   0.1523744E+05   0.9371007E+07   0.0000000E+00
   0.1950000E+01   0.1106770E+05   0.9364991E+07   0.0000000E+00
   0.1900000E+01   0.1892921E+05   0.9350556E+07   0.0000000E+00
   0.1850000E+01   0.2429124E+05   0.9333988E+07   0.0000000E+00
   0.1800000E+01   0.2289323E+05   0.9321041E+07   0.0000000E+00
   0.1750000E+01   0.2155165E+05   0.9307727E+07   0.0000000E+00
   0.1700000E+01   0.2505035E+05   0.9288302E+07   0.0000000E+00
   0.1650000E+01   0.3893831E+05   0.9262186E+07   0.0000000E+00
   0.1600000E+01   0.3643415E+05   0.9236853E+07   0.0000000E+00
   0.1550000E+01   0.4660762E+05   0.9208369E+07   0.0000000E+00
   0.1500000E+01   0.7468170E+05   0.9179255E+07   0.0000000E+00
   0.1450000E+01   0.1249026E+06   0.9146357E+07   0.0000000E+00
   0.1400000E+01   0.1303585E+06   0.9107734E+07   0.0000000E+00
   0.1350000E+01   0.1436507E+06   0.9063203E+07   0.0000000E+00
   0.1300000E+01   0.1948938E+06   0.9016507E+07   0.0000000E+00
   0.1250000E+01   0.2973452E+06   0.8971776E+07   0.0000000E+00
   0.1200000E+01   0.3546639E+06   0.8896945E+07   0.0000000E+00
   0.1150000E+01   0.4592098E+06   0.8869342E+07   0.0000000E+00
   0.1100000E+01   0.5788567E+06   0.8898462E+07   0.0000000E+00
   0.1050000E+01   0.6446766E+06   0.8902695E+07   0.0000000E+00
   0.1000000E+01   0.6934806E+06   0.8902932E+07   0.0000000E+00
   0.9500000E+00   0.7681724E+06   0.8943085E+07   0.0000000E+00
   0.9000000E+00   0.8372995E+06   0.8936277E+07   0.0000000E+00
   0.8500000E+00   0.9219828E+06   0.8982152E+07   0.0000000E+00
   0.8000000E+00   0.1009156E+07   0.9104771E+07   0.0000000E+00
   0.7500001E+00   0.1060776E+07   0.9227093E+07   0.0000000E+00
   0.7000000E+00   0.1077438E+07   0.9475387E+07   0.0000000E+00
   0.6500000E+00   0.1045290E+07   0.9665126E+07   0.0000000E+00
   0.6000000E+00   0.9758516E+06   0.9939461E+07   0.0000000E+00
   0.5500000E+00   0.8756825E+06   0.1016399E+08   0.0000000E+00
   0.5000000E+00   0.7562637E+06   0.1038874E+08   0.0000000E+00
   0.4500000E+00   0.6262157E+06   0.1062258E+08   0.0000000E+00
   0.4000000E+00   0.4941158E+06   0.1080222E+08   0.0000000E+00
   0.3500000E+00   0.3677967E+06   0.1094117E+08   0.0000000E+00
   0.3000000E+00   0.2541594E+06   0.1104927E+08   0.0000000E+00
   0.2500000E+00   0.1592696E+06   0.1109501E+08   0.0000000E+00
   0.2000000E+00   0.8705711E+05   0.1109939E+08   0.0000000E+00
   0.1500000E+00   0.3864165E+05   0.1106683E+08   0.0000000E+00
   0.1000000E+00   0.1186998E+05   0.1099807E+08   0.0000000E+00
   0.5000000E-01   0.1515995E+04   0.1084634E+08   0.0000000E+00
Zone t="Force sur  1- Mvt de  1 55",I=  40,F=POINT
   0.2000000E+01   0.5985062E+06   0.3795066E+09   0.0000000E+00
   0.1950000E+01   0.4227108E+06   0.3792502E+09   0.0000000E+00
   0.1900000E+01   0.7326165E+06   0.3786559E+09   0.0000000E+00
   0.1850000E+01   0.9340654E+06   0.3779704E+09   0.0000000E+00
   0.1800000E+01   0.8870216E+06   0.3774285E+09   0.0000000E+00
   0.1750000E+01   0.8423590E+06   0.3768805E+09   0.0000000E+00
   0.1700000E+01   0.9794530E+06   0.3760775E+09   0.0000000E+00
   0.1650000E+01   0.1555454E+07   0.3749840E+09   0.0000000E+00
   0.1600000E+01   0.1532096E+07   0.3739114E+09   0.0000000E+00
   0.1550000E+01   0.2069061E+07   0.3727558E+09   0.0000000E+00
   0.1500000E+01   0.3282730E+07   0.3716353E+09   0.0000000E+00
   0.1450000E+01   0.5300112E+07   0.3703713E+09   0.0000000E+00
   0.1400000E+01   0.5468710E+07   0.3688403E+09   0.0000000E+00
   0.1350000E+01   0.5961372E+07   0.3669960E+09   0.0000000E+00
   0.1300000E+01   0.8091491E+07   0.3650122E+09   0.0000000E+00
   0.1250000E+01   0.1245716E+08   0.3631568E+09   0.0000000E+00
   0.1200000E+01   0.1508385E+08   0.3603291E+09   0.0000000E+00
   0.1150000E+01   0.1931693E+08   0.3596232E+09   0.0000000E+00
   0.1100000E+01   0.2378017E+08   0.3610972E+09   0.0000000E+00
   0.1050000E+01   0.2603528E+08   0.3612809E+09   0.0000000E+00
   0.1000000E+01   0.2779012E+08   0.3611038E+09   0.0000000E+00
   0.9500000E+00   0.3078947E+08   0.3625043E+09   0.0000000E+00
   0.9000000E+00   0.3368431E+08   0.3621429E+09   0.0000000E+00
   0.8500000E+00   0.3718483E+08   0.3640423E+09   0.0000000E+00
   0.8000000E+00   0.4069029E+08   0.3690975E+09   0.0000000E+00
   0.7500001E+00   0.4269018E+08   0.3741156E+09   0.0000000E+00
   0.7000000E+00   0.4326263E+08   0.3841127E+09   0.0000000E+00
   0.6500000E+00   0.4189546E+08   0.3917020E+09   0.0000000E+00
   0.6000000E+00   0.3906598E+08   0.4026393E+09   0.0000000E+00
   0.5500000E+00   0.3503377E+08   0.4115695E+09   0.0000000E+00
   0.5000000E+00   0.3024813E+08   0.4205186E+09   0.0000000E+00
   0.4500000E+00   0.2504441E+08   0.4298393E+09   0.0000000E+00
   0.4000000E+00   0.1976165E+08   0.4370044E+09   0.0000000E+00
   0.3500000E+00   0.1471013E+08   0.4425457E+09   0.0000000E+00
   0.3000000E+00   0.1016558E+08   0.4468607E+09   0.0000000E+00
   0.2500000E+00   0.6370442E+07   0.4486861E+09   0.0000000E+00
   0.2000000E+00   0.3482168E+07   0.4488549E+09   0.0000000E+00
   0.1500000E+00   0.1545638E+07   0.4475483E+09   0.0000000E+00
   0.1000000E+00   0.4747955E+06   0.4448019E+09   0.0000000E+00
   0.5000000E-01   0.6063966E+05   0.4387062E+09   0.0000000E+00
Zone t="Force sur  1- Mvt de  1 66",I=  40,F=POINT
   0.2000000E+01   0.5694580E+09   0.3836614E+09   0.0000000E+00
   0.1950000E+01   0.6074852E+09   0.3838727E+09   0.0000000E+00
   0.1900000E+01   0.6462938E+09   0.3858492E+09   0.0000000E+00
   0.1850000E+01   0.6887738E+09   0.3910969E+09   0.0000000E+00