VARIABLES="w (rad/s)"
"abs(F   1   1)" "angle(F   1   1)"
"abs(F   1   2)" "angle(F   1   2)"
"abs(F   1   3)" "angle(F   1   3)"
"abs(F   1   4)" "angle(F   1   4)"
"abs(F   1   5)" "angle(F   1   5)"
"abs(F   1   6)" "angle(F   1   6)"
Zone t="Diffraction force - beta =   0.000",I=    40,F=POINT
  0.5000000E-01  0.1405368E+04 -0.3138026E+01  0.3941521E+03 -0.1565942E+01  0.9662691E+03  0.1577391E+01  0.1506252E+04 -0.1567038E+01  0.1016039E+04 -0.5619578E-02  0.6218994E+03 -0.3129186E+01
  0.9999999E-01  0.5624445E+04 -0.3138017E+01  0.1571884E+04 -0.1565964E+01  0.3901734E+04  0.1587075E+01  0.5992956E+04 -0.1567018E+01  0.4055512E+04 -0.5544142E-02  0.2495110E+04 -0.3129295E+01
  0.1500000E+00  0.1271022E+05 -0.3138042E+01  0.3519511E+04 -0.1565480E+01  0.8798966E+04  0.1602431E+01  0.1330712E+05 -0.1567032E+01  0.9125899E+04 -0.5292010E-02  0.5599728E+04 -0.3129604E+01
  0.2000000E+00  0.2258579E+05 -0.3138057E+01  0.6179420E+04 -0.1566116E+01  0.1561143E+05  0.1622599E+01  0.2323571E+05 -0.1567830E+01  0.1610475E+05 -0.4967173E-02  0.9851611E+04 -0.3129637E+01
  0.2500000E+00  0.3522062E+05 -0.3137975E+01  0.9500068E+04 -0.1567168E+01  0.2420782E+05  0.1646623E+01  0.3544987E+05 -0.1569710E+01  0.2494445E+05 -0.4375194E-02  0.1519396E+05 -0.3129614E+01
  0.3000000E+00  0.5061029E+05 -0.3137675E+01  0.1341843E+05 -0.1568752E+01  0.3437479E+05  0.1673524E+01  0.4961226E+05 -0.1572844E+01  0.3547638E+05 -0.3596706E-02  0.2144629E+05 -0.3129233E+01
  0.3500000E+00  0.6881563E+05 -0.3136979E+01  0.1785500E+05 -0.1570906E+01  0.4583076E+05  0.1702440E+01  0.6531018E+05 -0.1577447E+01  0.4749378E+05 -0.2502127E-02  0.2855554E+05 -0.3128621E+01
  0.4000001E+00  0.8958615E+05 -0.3135500E+01  0.2274341E+05 -0.1574159E+01  0.5823598E+05  0.1732531E+01  0.8212542E+05 -0.1584404E+01  0.6135661E+05 -0.6602228E-03  0.3648534E+05 -0.3126887E+01
  0.4499998E+00  0.1132877E+06 -0.3132839E+01  0.2799304E+05 -0.1577951E+01  0.7120703E+05  0.1763151E+01  0.9962956E+05 -0.1593391E+01  0.7610066E+05  0.1997196E-02  0.4496878E+05 -0.3123999E+01
  0.5000001E+00  0.1394956E+06 -0.3128367E+01  0.3354706E+05 -0.1582020E+01  0.8437061E+05  0.1793636E+01  0.1175633E+06 -0.1604739E+01  0.9254796E+05  0.5924958E-02  0.5402912E+05 -0.3118923E+01
  0.5500002E+00  0.1688823E+06 -0.3121439E+01  0.3933457E+05 -0.1586298E+01  0.9733049E+05  0.1823634E+01  0.1355247E+06 -0.1618595E+01  0.1090044E+06  0.1148332E-01  0.6329421E+05 -0.3111074E+01
  0.5999997E+00  0.2005640E+06 -0.3111111E+01  0.4527906E+05 -0.1590562E+01  0.1097475E+06  0.1852780E+01  0.1531298E+06 -0.1634761E+01  0.1271407E+06  0.1949235E-01  0.7312490E+05 -0.3098968E+01
  0.6500000E+00  0.2353629E+06 -0.3096614E+01  0.5133728E+05 -0.1593343E+01  0.1213137E+06  0.1880831E+01  0.1705792E+06 -0.1652865E+01  0.1446290E+06  0.3025646E-01  0.8269934E+05 -0.3082009E+01
  0.6999999E+00  0.2726723E+06 -0.3076905E+01  0.5744270E+05 -0.1594944E+01  0.1317520E+06  0.1907746E+01  0.1872811E+06 -0.1672419E+01  0.1619781E+06  0.4461948E-01  0.9232659E+05 -0.3058387E+01
  0.7500000E+00  0.3115004E+06 -0.3050941E+01  0.6345312E+05 -0.1593831E+01  0.1408477E+06  0.1933369E+01  0.2034597E+06 -0.1693069E+01  0.1794982E+06  0.6276966E-01  0.1014248E+06 -0.3027571E+01
  0.8000000E+00  0.3520441E+06 -0.3018146E+01  0.6933017E+05 -0.1590274E+01  0.1484546E+06  0.1957881E+01  0.2186978E+06 -0.1714161E+01  0.1951553E+06  0.8573821E-01  0.1100931E+06 -0.2987559E+01
  0.8500000E+00  0.3933302E+06 -0.2977833E+01  0.7494441E+05 -0.1582824E+01  0.1544224E+06  0.1981173E+01  0.2335015E+06 -0.1735036E+01  0.2074776E+06  0.1129923E+00  0.1169228E+06 -0.2938227E+01
  0.8999999E+00  0.4329403E+06 -0.2929165E+01  0.8009700E+05 -0.1572177E+01  0.1587100E+06  0.2003428E+01  0.2471750E+06 -0.1755347E+01  0.2179816E+06  0.1454842E+00  0.1227152E+06 -0.2876838E+01
  0.9499999E+00  0.4687594E+06 -0.2872373E+01  0.8468712E+05 -0.1558139E+01  0.1612500E+06  0.2024761E+01  0.2600560E+06 -0.1774423E+01  0.2254056E+06  0.1813611E+00  0.1263165E+06 -0.2804273E+01
  0.9999999E+00  0.4992115E+06 -0.2808475E+01  0.8855451E+05 -0.1540552E+01  0.1620581E+06  0.2045284E+01  0.2723800E+06 -0.1791085E+01  0.2273584E+06  0.2197338E+00  0.1271788E+06 -0.2720601E+01
  0.1050000E+01  0.5223749E+06 -0.2738713E+01  0.9153735E+05 -0.1520666E+01  0.1611470E+06  0.2065074E+01  0.2835453E+06 -0.1804774E+01  0.2233594E+06  0.2584043E+00  0.1253773E+06 -0.2623977E+01
  0.1100000E+01  0.5351814E+06 -0.2664245E+01  0.9359225E+05 -0.1499092E+01  0.1586304E+06  0.2083944E+01  0.2942088E+06 -0.1814082E+01  0.2146185E+06  0.2944573E+00  0.1203659E+06 -0.2516379E+01
  0.1150000E+01  0.5365084E+06 -0.2587716E+01  0.9479060E+05 -0.1475968E+01  0.1545614E+06  0.2102052E+01  0.3044248E+06 -0.1817389E+01  0.2011406E+06  0.3238316E+00  0.1126132E+06 -0.2397465E+01
  0.1200000E+01  0.5262573E+06 -0.2511733E+01  0.9500467E+05 -0.1452327E+01  0.1490832E+06  0.2119217E+01  0.3131835E+06 -0.1813508E+01  0.1836488E+06  0.3431956E+00  0.1030726E+06 -0.2264863E+01
  0.1250000E+01  0.5041804E+06 -0.2437832E+01  0.9459049E+05 -0.1427179E+01  0.1423992E+06  0.2135379E+01  0.3212172E+06 -0.1799078E+01  0.1639783E+06  0.3490559E+00  0.9187941E+05 -0.2116594E+01
  0.1300000E+01  0.4719103E+06 -0.2368854E+01  0.9330738E+05 -0.1398883E+01  0.1346031E+06  0.2150034E+01  0.3273014E+06 -0.1772462E+01  0.1435208E+06  0.3330658E+00  0.7927690E+05 -0.1953472E+01
  0.1350000E+01  0.4313058E+06 -0.2305470E+01  0.9150595E+05 -0.1365830E+01  0.1259330E+06  0.2162852E+01  0.3308612E+06 -0.1731629E+01  0.1242191E+06  0.2999552E+00  0.6808545E+05 -0.1760503E+01
  0.1400000E+01  0.3843214E+06 -0.2248641E+01  0.8890764E+05 -0.1325853E+01  0.1165996E+06  0.2173499E+01  0.3302043E+06 -0.1675482E+01  0.1068757E+06  0.2506160E+00  0.5861164E+05 -0.1538555E+01
  0.1450000E+01  0.3330647E+06 -0.2199780E+01  0.8540525E+05 -0.1275924E+01  0.1068503E+06  0.2180712E+01  0.3238179E+06 -0.1600134E+01  0.9190056E+05  0.1829505E+00  0.5083404E+05 -0.1281248E+01
  0.1500000E+01  0.2788608E+06 -0.2159209E+01  0.8057253E+05 -0.1217714E+01  0.9694810E+05  0.2183149E+01  0.3105508E+06 -0.1509914E+01  0.7967909E+05  0.1096968E+00  0.4491886E+05 -0.9984725E+00
  0.1550000E+01  0.2235454E+06 -0.2126760E+01  0.7443890E+05 -0.1151830E+01  0.8720577E+05  0.2179572E+01  0.2892705E+06 -0.1408285E+01  0.6964166E+05  0.5244836E-01  0.4305018E+05 -0.7123280E+00
  0.1600000E+01  0.1675443E+06 -0.2104693E+01  0.6696505E+05 -0.1085945E+01  0.7789576E+05  0.2170585E+01  0.2604432E+06 -0.1303328E+01  0.6144006E+05  0.3281877E-01  0.4333674E+05 -0.4634190E+00
  0.1650000E+01  0.1119060E+06 -0.2103745E+01  0.5877328E+05 -0.1021728E+01  0.6915845E+05  0.2156534E+01  0.2267767E+06 -0.1198055E+01  0.5546106E+05  0.5706062E-01  0.4477696E+05 -0.2566280E+00
  0.1700000E+01  0.5754498E+05 -0.2174152E+01  0.5027697E+05 -0.9733604E+00  0.6115777E+05  0.2139604E+01  0.1911097E+06 -0.1106304E+01  0.5191489E+05  0.1455648E+00  0.4558491E+05 -0.8034761E-01
  0.1750000E+01  0.1198265E+05  0.2968671E+01  0.4218165E+05 -0.9354048E+00  0.5374412E+05  0.2120129E+01  0.1569815E+06 -0.1026215E+01  0.5123672E+05  0.3213078E+00  0.4676414E+05  0.6150344E-01
  0.1800000E+01  0.5131991E+05  0.1465901E+01  0.3478247E+05 -0.9227139E+00  0.4690677E+05  0.2099485E+01  0.1258141E+06 -0.9711027E+00  0.5524029E+05  0.5568978E+00  0.4796511E+05  0.1695390E+00
  0.1850000E+01  0.1008169E+06  0.1387085E+01  0.2834349E+05 -0.9280162E+00  0.4048801E+05  0.2075654E+01  0.9897335E+05 -0.9383387E+00  0.6531840E+05  0.7878786E+00  0.4807787E+05  0.2570301E+00
  0.1900000E+01  0.1481554E+06  0.1384734E+01  0.2299689E+05 -0.9446198E+00  0.3443059E+05  0.2045615E+01  0.7698603E+05 -0.9196265E+00  0.8146501E+05  0.9698051E+00  0.4728902E+05  0.3314357E+00
  0.1950000E+01  0.1928327E+06  0.1403255E+01  0.1869849E+05 -0.9929845E+00  0.2873483E+05  0.2003064E+01  0.5928735E+05 -0.9462057E+00  0.1027376E+06  0.1098626E+01  0.4516492E+05  0.4050166E+00
  0.2000000E+01  0.2365518E+06  0.1434580E+01  0.1525889E+05 -0.1059825E+01  0.2320748E+05  0.1919544E+01  0.4602653E+05 -0.1005067E+01  0.1294550E+06  0.1183273E+01  0.4317993E+05  0.4894424E+00
Zone t="Diffraction force - beta =  90.000",I=    40,F=POINT
  0.5000000E-01  0.6143524E+01 -0.2186980E+01  0.1697711E+04 -0.2907624E+01  0.1045619E+04  0.1178745E+01  0.2770451E+04 -0.2567875E+01  0.6842319E+01 -0.2147357E+01  0.7723826E+01 -0.1621826E+01
  0.9999999E-01  0.2471123E+02 -0.2189423E+01  0.6790009E+04 -0.2909311E+01  0.4200494E+04  0.1191348E+01  0.1103145E+05 -0.2571695E+01  0.2720060E+02 -0.2140216E+01  0.3068921E+02 -0.1621121E+01
  0.1500000E+00  0.5339334E+02 -0.2131448E+01  0.1528476E+05 -0.2912240E+01  0.9411958E+04  0.1207145E+01  0.2459054E+05 -0.2579757E+01  0.5952919E+02 -0.2131003E+01  0.6852383E+02 -0.1394255E+01
  0.2000000E+00  0.9458302E+02 -0.2144722E+01  0.2710790E+05 -0.2916862E+01  0.1655902E+05  0.1227744E+01  0.4303970E+05 -0.2589013E+01  0.1049246E+03 -0.2157297E+01  0.1198326E+03 -0.1396187E+01
  0.2500000E+00  0.1490522E+03 -0.2179021E+01  0.4215115E+05 -0.2922283E+01  0.2542925E+05  0.1251145E+01  0.6597488E+05 -0.2601892E+01  0.1584239E+03 -0.2187387E+01  0.1806565E+03 -0.1432278E+01
  0.3000000E+00  0.2098719E+03 -0.2164571E+01  0.6038585E+05 -0.2928670E+01  0.3572881E+05  0.1275926E+01  0.9282980E+05 -0.2617268E+01  0.2165595E+03 -0.2205989E+01  0.2570202E+03 -0.1422669E+01
  0.3500000E+00  0.2778070E+03 -0.2148458E+01  0.8178066E+05 -0.2935880E+01  0.4710113E+05  0.1301222E+01  0.1229888E+06 -0.2635190E+01  0.2888341E+03 -0.2248484E+01  0.3450816E+03 -0.1327371E+01
  0.4000001E+00  0.3629360E+03 -0.2170848E+01  0.1060870E+06 -0.2942928E+01  0.5914875E+05  0.1326196E+01  0.1564155E+06 -0.2657437E+01  0.3682439E+03 -0.2307389E+01  0.4326367E+03 -0.1352548E+01
  0.4499998E+00  0.4546481E+03 -0.2177994E+01  0.1336517E+06 -0.2950205E+01  0.7145834E+05  0.1350026E+01  0.1918484E+06 -0.2680868E+01  0.4612713E+03 -0.2392057E+01  0.5230148E+03 -0.1309219E+01
  0.5000001E+00  0.5518954E+03 -0.2167521E+01  0.1638527E+06 -0.2955885E+01  0.8366078E+05  0.1371804E+01  0.2297158E+06 -0.2706705E+01  0.5676003E+03 -0.2455606E+01  0.6403442E+03 -0.1253759E+01
  0.5500002E+00  0.6575981E+03 -0.2145818E+01  0.1975712E+06 -0.2960332E+01  0.9539977E+05  0.1391003E+01  0.2685363E+06 -0.2732780E+01  0.7158947E+03 -0.2560052E+01  0.7710442E+03 -0.1159877E+01
  0.5999997E+00  0.7875489E+03 -0.2164585E+01  0.2338665E+06 -0.2961632E+01  0.1064088E+06  0.1407742E+01  0.3089309E+06 -0.2760048E+01  0.8691435E+03 -0.2625754E+01  0.8222021E+03 -0.1212014E+01
  0.6500000E+00  0.9103649E+03 -0.2128160E+01  0.2731901E+06 -0.2959159E+01  0.1165177E+06  0.1420827E+01  0.3492323E+06 -0.2785001E+01  0.1076646E+04 -0.2683423E+01  0.9744053E+03 -0.1154008E+01
  0.6999999E+00  0.1057460E+04 -0.2117345E+01  0.3155206E+06 -0.2951948E+01  0.1255987E+06  0.1431017E+01  0.3891547E+06 -0.2808907E+01  0.1333157E+04 -0.2729903E+01  0.1030095E+04 -0.1122664E+01
  0.7500000E+00  0.1204116E+04 -0.2063998E+01  0.3589176E+06 -0.2938227E+01  0.1336493E+06  0.1438211E+01  0.4283449E+06 -0.2829745E+01  0.1643712E+04 -0.2770148E+01  0.1171713E+04 -0.1097625E+01
  0.8000000E+00  0.1360309E+04 -0.2033008E+01  0.4043061E+06 -0.2917998E+01  0.1407070E+06  0.1443272E+01  0.4640983E+06 -0.2847405E+01  0.2004800E+04 -0.2759754E+01  0.1215187E+04 -0.9895088E+00
  0.8500000E+00  0.1526893E+04 -0.1936887E+01  0.4498092E+06 -0.2890131E+01  0.1468749E+06  0.1446438E+01  0.4952080E+06 -0.2861161E+01  0.2458250E+04 -0.2776244E+01  0.1470035E+04 -0.8874016E+00
  0.8999999E+00  0.1693464E+04 -0.1882854E+01  0.4932735E+06 -0.2854012E+01  0.1522010E+06  0.1450362E+01  0.5203726E+06 -0.2872104E+01  0.2884693E+04 -0.2744805E+01  0.1481555E+04 -0.8301288E+00
  0.9499999E+00  0.1858641E+04 -0.1789393E+01  0.5320837E+06 -0.2809654E+01  0.1566776E+06  0.1456115E+01  0.5390239E+06 -0.2881631E+01  0.3454686E+04 -0.2717364E+01  0.1479647E+04 -0.8133187E+00
  0.9999999E+00  0.2001691E+04 -0.1678817E+01  0.5642286E+06 -0.2758209E+01  0.1602626E+06  0.1465221E+01  0.5472372E+06 -0.2891000E+01  0.4062099E+04 -0.2657200E+01  0.1628226E+04 -0.7645700E+00
  0.1050000E+01  0.2169581E+04 -0.1576962E+01  0.5885362E+06 -0.2701290E+01  0.1627333E+06  0.1479339E+01  0.5437708E+06 -0.2904793E+01  0.4655874E+04 -0.2609012E+01  0.1695059E+04 -0.5721080E+00
  0.1100000E+01  0.2329249E+04 -0.1448179E+01  0.6003517E+06 -0.2639606E+01  0.1638300E+06  0.1499119E+01  0.5312431E+06 -0.2926201E+01  0.5377842E+04 -0.2543293E+01  0.1724901E+04 -0.5577726E+00
  0.1150000E+01  0.2495762E+04 -0.1320728E+01  0.5995679E+06 -0.2576404E+01  0.1633363E+06  0.1524759E+01  0.5109447E+06 -0.2960574E+01  0.6123448E+04 -0.2473003E+01  0.1798373E+04 -0.5941546E+00
  0.1200000E+01  0.2710906E+04 -0.1209050E+01  0.5862881E+06 -0.2514146E+01  0.1610315E+06  0.1555788E+01  0.4844282E+06 -0.3013822E+01  0.6781903E+04 -0.2389024E+01  0.1807622E+04 -0.4665976E+00
  0.1250000E+01  0.2939362E+04 -0.1080354E+01  0.5604052E+06 -0.2454882E+01  0.1568511E+06  0.1591067E+01  0.4596055E+06 -0.3087933E+01  0.7773389E+04 -0.2279346E+01  0.1550454E+04 -0.4587435E+00
  0.1300000E+01  0.3423394E+04 -0.9240078E+00  0.5233313E+06 -0.2400669E+01  0.1510711E+06  0.1629517E+01  0.4389512E+06  0.3102479E+01  0.8603387E+04 -0.2200454E+01  0.2211487E+04 -0.4804357E+00
  0.1350000E+01  0.3931683E+04 -0.7806575E+00  0.4781611E+06 -0.2353918E+01  0.1437967E+06  0.1670694E+01  0.4280786E+06  0.2999443E+01  0.9404675E+04 -0.2073227E+01  0.2094436E+04 -0.5519798E+00
  0.1400000E+01  0.4533241E+04 -0.6189021E+00  0.4274614E+06 -0.2315993E+01  0.1352982E+06  0.1714442E+01  0.4279547E+06  0.2903807E+01  0.1052000E+05 -0.1929784E+01  0.1964681E+04 -0.4432120E+00
  0.1450000E+01  0.5341151E+04 -0.4316884E+00  0.3727601E+06 -0.2287901E+01  0.1259964E+06  0.1760114E+01  0.4360121E+06  0.2832167E+01  0.1138620E+05 -0.1781659E+01  0.2005883E+04 -0.5510847E+00
  0.1500000E+01  0.6403583E+04 -0.2395127E+00  0.3159874E+06 -0.2270308E+01  0.1161330E+06  0.1808700E+01  0.4454988E+06  0.2792145E+01  0.1209119E+05 -0.1630395E+01  0.2940854E+04 -0.4744472E+00
  0.1550000E+01  0.7344255E+04 -0.2391972E-01  0.2590759E+06 -0.2265039E+01  0.1058119E+06  0.1860485E+01  0.4507902E+06  0.2787121E+01  0.1265563E+05 -0.1422319E+01  0.2939989E+04 -0.5333223E+00
  0.1600000E+01  0.8180531E+04  0.1790987E+00  0.2025796E+06 -0.2275611E+01  0.9526928E+05  0.1915217E+01  0.4462981E+06  0.2811696E+01  0.1342070E+05 -0.1198678E+01  0.2629782E+04 -0.4188750E+00
  0.1650000E+01  0.9262334E+04  0.3689363E+00  0.1468341E+06 -0.2315054E+01  0.8480324E+05  0.1972113E+01  0.4309919E+06  0.2858812E+01  0.1360990E+05 -0.9945158E+00  0.2164034E+04 -0.4142596E+00
  0.1700000E+01  0.1065853E+05  0.5460890E+00  0.9244112E+05 -0.2429418E+01  0.7457227E+05  0.2030390E+01  0.4046635E+06  0.2921093E+01  0.1313754E+05 -0.8135604E+00  0.2788555E+04 -0.3423297E+00
  0.1750000E+01  0.1156686E+05  0.7130449E+00  0.4535294E+05 -0.2871537E+01  0.6480921E+05  0.2089266E+01  0.3724246E+06  0.2996933E+01  0.1272996E+05 -0.6203852E+00  0.2806066E+04 -0.3630864E+00
  0.1800000E+01  0.1252881E+05  0.8799189E+00  0.4173571E+05  0.2092734E+01  0.5561766E+05  0.2149462E+01  0.3371212E+06  0.3088063E+01  0.1267866E+05 -0.4141498E+00  0.2278272E+04 -0.6783667E+00
  0.1850000E+01  0.1401929E+05  0.1021736E+01  0.8365181E+05  0.1594710E+01  0.4715982E+05  0.2210210E+01  0.3032518E+06 -0.3084208E+01  0.1302950E+05 -0.2148880E+00  0.2219461E+04 -0.1197525E+01
  0.1900000E+01  0.1626354E+05  0.1151457E+01  0.1298215E+06  0.1476023E+01  0.3947253E+05  0.2270029E+01  0.2735263E+06 -0.2951464E+01  0.1383101E+05 -0.3604338E-01  0.3215381E+04 -0.1581351E+01
  0.1950000E+01  0.2005721E+05  0.1284578E+01  0.1725573E+06  0.1442535E+01  0.3239417E+05  0.2325209E+01  0.2505434E+06 -0.2787631E+01  0.1544058E+05  0.1259149E+00  0.4574454E+04 -0.1445596E+01
  0.2000000E+01  0.2806774E+05  0.1448855E+01  0.2099869E+06  0.1439327E+01  0.2544596E+05  0.2362709E+01  0.2371248E+06 -0.2600030E+01  0.2015608E+05  0.3393540E+00  0.5858590E+04 -0.1130404E+01
