VARIABLES="w (rad/s)"
"abs(F   1   1)" "angle(F   1   1)"
"abs(F   1   2)" "angle(F   1   2)"
"abs(F   1   3)" "angle(F   1   3)"
"abs(F   1   4)" "angle(F   1   4)"
"abs(F   1   5)" "angle(F   1   5)"
"abs(F   1   6)" "angle(F   1   6)"
Zone t="Diffraction force - beta =   0.000",I=    40,F=POINT
  0.5000000E-01  0.1405368E+04 -0.3138026E+01  0.3941519E+03 -0.1565942E+01  0.9662692E+03  0.1577391E+01  0.1506252E+04 -0.1567038E+01  0.1016039E+04 -0.5619417E-02  0.6218994E+03 -0.3129186E+01
  0.9999999E-01  0.5624445E+04 -0.3138017E+01  0.1571885E+04 -0.1565963E+01  0.3901735E+04  0.1587075E+01  0.5992952E+04 -0.1567018E+01  0.4055514E+04 -0.5544312E-02  0.2495110E+04 -0.3129295E+01
  0.1500000E+00  0.1271023E+05 -0.3138042E+01  0.3519509E+04 -0.1565480E+01  0.8798963E+04  0.1602432E+01  0.1330712E+05 -0.1567032E+01  0.9125897E+04 -0.5291882E-02  0.5599733E+04 -0.3129604E+01
  0.2000000E+00  0.2258580E+05 -0.3138057E+01  0.6179420E+04 -0.1566116E+01  0.1561143E+05  0.1622598E+01  0.2323572E+05 -0.1567830E+01  0.1610476E+05 -0.4967287E-02  0.9851615E+04 -0.3129637E+01
  0.2500000E+00  0.3522063E+05 -0.3137975E+01  0.9500069E+04 -0.1567168E+01  0.2420782E+05  0.1646623E+01  0.3544986E+05 -0.1569710E+01  0.2494443E+05 -0.4375266E-02  0.1519397E+05 -0.3129614E+01
  0.3000000E+00  0.5061029E+05 -0.3137675E+01  0.1341843E+05 -0.1568752E+01  0.3437478E+05  0.1673524E+01  0.4961224E+05 -0.1572844E+01  0.3547636E+05 -0.3596565E-02  0.2144629E+05 -0.3129233E+01
  0.3500000E+00  0.6881563E+05 -0.3136979E+01  0.1785499E+05 -0.1570906E+01  0.4583075E+05  0.1702439E+01  0.6531016E+05 -0.1577447E+01  0.4749379E+05 -0.2502214E-02  0.2855553E+05 -0.3128622E+01
  0.4000001E+00  0.8958615E+05 -0.3135500E+01  0.2274340E+05 -0.1574158E+01  0.5823596E+05  0.1732531E+01  0.8212541E+05 -0.1584404E+01  0.6135655E+05 -0.6606259E-03  0.3648529E+05 -0.3126887E+01
  0.4500001E+00  0.1132878E+06 -0.3132839E+01  0.2799307E+05 -0.1577951E+01  0.7120705E+05  0.1763151E+01  0.9962962E+05 -0.1593391E+01  0.7610067E+05  0.1997024E-02  0.4496888E+05 -0.3123999E+01
  0.5000001E+00  0.1394956E+06 -0.3128367E+01  0.3354707E+05 -0.1582020E+01  0.8437062E+05  0.1793636E+01  0.1175633E+06 -0.1604739E+01  0.9254795E+05  0.5925031E-02  0.5402918E+05 -0.3118923E+01
  0.5500002E+00  0.1688823E+06 -0.3121439E+01  0.3933454E+05 -0.1586298E+01  0.9733049E+05  0.1823634E+01  0.1355247E+06 -0.1618595E+01  0.1090044E+06  0.1148325E-01  0.6329414E+05 -0.3111075E+01
  0.5999997E+00  0.2005640E+06 -0.3111110E+01  0.4527905E+05 -0.1590562E+01  0.1097476E+06  0.1852780E+01  0.1531298E+06 -0.1634760E+01  0.1271408E+06  0.1949258E-01  0.7312488E+05 -0.3098968E+01
  0.6500000E+00  0.2353630E+06 -0.3096614E+01  0.5133727E+05 -0.1593343E+01  0.1213137E+06  0.1880831E+01  0.1705792E+06 -0.1652865E+01  0.1446290E+06  0.3025641E-01  0.8269942E+05 -0.3082009E+01
  0.7000000E+00  0.2726724E+06 -0.3076905E+01  0.5744269E+05 -0.1594944E+01  0.1317520E+06  0.1907746E+01  0.1872812E+06 -0.1672419E+01  0.1619782E+06  0.4461959E-01  0.9232668E+05 -0.3058387E+01
  0.7500001E+00  0.3115004E+06 -0.3050941E+01  0.6345312E+05 -0.1593831E+01  0.1408477E+06  0.1933369E+01  0.2034598E+06 -0.1693069E+01  0.1794982E+06  0.6276976E-01  0.1014247E+06 -0.3027572E+01
  0.8000000E+00  0.3520441E+06 -0.3018146E+01  0.6933019E+05 -0.1590274E+01  0.1484546E+06  0.1957881E+01  0.2186977E+06 -0.1714161E+01  0.1951554E+06  0.8573855E-01  0.1100930E+06 -0.2987559E+01
  0.8500000E+00  0.3933302E+06 -0.2977833E+01  0.7494443E+05 -0.1582824E+01  0.1544224E+06  0.1981173E+01  0.2335015E+06 -0.1735036E+01  0.2074775E+06  0.1129923E+00  0.1169226E+06 -0.2938227E+01
  0.9000000E+00  0.4329404E+06 -0.2929165E+01  0.8009704E+05 -0.1572177E+01  0.1587100E+06  0.2003428E+01  0.2471752E+06 -0.1755347E+01  0.2179817E+06  0.1454843E+00  0.1227153E+06 -0.2876838E+01
  0.9500000E+00  0.4687594E+06 -0.2872373E+01  0.8468712E+05 -0.1558140E+01  0.1612501E+06  0.2024761E+01  0.2600560E+06 -0.1774423E+01  0.2254057E+06  0.1813609E+00  0.1263164E+06 -0.2804272E+01
  0.1000000E+01  0.4992117E+06 -0.2808475E+01  0.8855459E+05 -0.1540552E+01  0.1620581E+06  0.2045284E+01  0.2723801E+06 -0.1791085E+01  0.2273584E+06  0.2197338E+00  0.1271789E+06 -0.2720600E+01
  0.1050000E+01  0.5223748E+06 -0.2738713E+01  0.9153739E+05 -0.1520667E+01  0.1611470E+06  0.2065074E+01  0.2835452E+06 -0.1804775E+01  0.2233596E+06  0.2584040E+00  0.1253771E+06 -0.2623976E+01
  0.1100000E+01  0.5351812E+06 -0.2664245E+01  0.9359223E+05 -0.1499093E+01  0.1586303E+06  0.2083944E+01  0.2942089E+06 -0.1814082E+01  0.2146184E+06  0.2944574E+00  0.1203659E+06 -0.2516380E+01
  0.1150000E+01  0.5365084E+06 -0.2587716E+01  0.9479061E+05 -0.1475968E+01  0.1545614E+06  0.2102052E+01  0.3044248E+06 -0.1817389E+01  0.2011406E+06  0.3238316E+00  0.1126131E+06 -0.2397465E+01
  0.1200000E+01  0.5262573E+06 -0.2511733E+01  0.9500468E+05 -0.1452327E+01  0.1490831E+06  0.2119217E+01  0.3131834E+06 -0.1813508E+01  0.1836489E+06  0.3431951E+00  0.1030726E+06 -0.2264864E+01
  0.1250000E+01  0.5041804E+06 -0.2437832E+01  0.9459045E+05 -0.1427179E+01  0.1423991E+06  0.2135379E+01  0.3212172E+06 -0.1799077E+01  0.1639782E+06  0.3490565E+00  0.9187952E+05 -0.2116595E+01
  0.1300000E+01  0.4719104E+06 -0.2368854E+01  0.9330738E+05 -0.1398883E+01  0.1346031E+06  0.2150034E+01  0.3273013E+06 -0.1772462E+01  0.1435208E+06  0.3330659E+00  0.7927691E+05 -0.1953471E+01
  0.1350000E+01  0.4313056E+06 -0.2305470E+01  0.9150598E+05 -0.1365830E+01  0.1259329E+06  0.2162852E+01  0.3308612E+06 -0.1731629E+01  0.1242190E+06  0.2999552E+00  0.6808526E+05 -0.1760501E+01
  0.1400000E+01  0.3843213E+06 -0.2248641E+01  0.8890768E+05 -0.1325854E+01  0.1165995E+06  0.2173500E+01  0.3302043E+06 -0.1675483E+01  0.1068756E+06  0.2506160E+00  0.5861160E+05 -0.1538554E+01
  0.1450000E+01  0.3330645E+06 -0.2199780E+01  0.8540518E+05 -0.1275924E+01  0.1068503E+06  0.2180712E+01  0.3238179E+06 -0.1600134E+01  0.9190045E+05  0.1829507E+00  0.5083407E+05 -0.1281249E+01
  0.1500000E+01  0.2788608E+06 -0.2159209E+01  0.8057250E+05 -0.1217714E+01  0.9694812E+05  0.2183148E+01  0.3105510E+06 -0.1509914E+01  0.7967911E+05  0.1096965E+00  0.4491881E+05 -0.9984702E+00
  0.1550000E+01  0.2235452E+06 -0.2126759E+01  0.7443888E+05 -0.1151831E+01  0.8720570E+05  0.2179573E+01  0.2892705E+06 -0.1408285E+01  0.6964161E+05  0.5244861E-01  0.4305018E+05 -0.7123255E+00
  0.1600000E+01  0.1675439E+06 -0.2104692E+01  0.6696506E+05 -0.1085945E+01  0.7789566E+05  0.2170585E+01  0.2604432E+06 -0.1303328E+01  0.6144009E+05  0.3282039E-01  0.4333671E+05 -0.4634189E+00
  0.1650000E+01  0.1119058E+06 -0.2103744E+01  0.5877326E+05 -0.1021726E+01  0.6915845E+05  0.2156533E+01  0.2267764E+06 -0.1198054E+01  0.5546110E+05  0.5705936E-01  0.4477697E+05 -0.2566262E+00
  0.1700000E+01  0.5754473E+05 -0.2174153E+01  0.5027688E+05 -0.9733586E+00  0.6115776E+05  0.2139605E+01  0.1911097E+06 -0.1106303E+01  0.5191495E+05  0.1455655E+00  0.4558477E+05 -0.8034752E-01
  0.1750000E+01  0.1198272E+05  0.2968649E+01  0.4218164E+05 -0.9354026E+00  0.5374411E+05  0.2120129E+01  0.1569815E+06 -0.1026215E+01  0.5123671E+05  0.3213103E+00  0.4676408E+05  0.6150413E-01
  0.1800000E+01  0.5132001E+05  0.1465901E+01  0.3478257E+05 -0.9227148E+00  0.4690679E+05  0.2099485E+01  0.1258141E+06 -0.9711021E+00  0.5524034E+05  0.5568978E+00  0.4796497E+05  0.1695427E+00
  0.1850000E+01  0.1008170E+06  0.1387086E+01  0.2834341E+05 -0.9280124E+00  0.4048802E+05  0.2075653E+01  0.9897345E+05 -0.9383393E+00  0.6531835E+05  0.7878796E+00  0.4807790E+05  0.2570311E+00
  0.1900000E+01  0.1481554E+06  0.1384734E+01  0.2299684E+05 -0.9446209E+00  0.3443059E+05  0.2045615E+01  0.7698615E+05 -0.9196265E+00  0.8146503E+05  0.9698046E+00  0.4728900E+05  0.3314367E+00
  0.1950000E+01  0.1928328E+06  0.1403255E+01  0.1869859E+05 -0.9929865E+00  0.2873479E+05  0.2003064E+01  0.5928732E+05 -0.9462035E+00  0.1027377E+06  0.1098626E+01  0.4516512E+05  0.4050186E+00
  0.2000000E+01  0.2365518E+06  0.1434580E+01  0.1525895E+05 -0.1059827E+01  0.2320750E+05  0.1919544E+01  0.4602659E+05 -0.1005064E+01  0.1294550E+06  0.1183273E+01  0.4317992E+05  0.4894440E+00
Zone t="Diffraction force - beta =  90.000",I=    40,F=POINT
  0.5000000E-01  0.6143576E+01 -0.2186993E+01  0.1697710E+04 -0.2907624E+01  0.1045617E+04  0.1178746E+01  0.2770448E+04 -0.2567875E+01  0.6842140E+01 -0.2147367E+01  0.7723567E+01 -0.1621817E+01
  0.9999999E-01  0.2471151E+02 -0.2189419E+01  0.6790010E+04 -0.2909311E+01  0.4200496E+04  0.1191347E+01  0.1103145E+05 -0.2571695E+01  0.2720042E+02 -0.2140234E+01  0.3068916E+02 -0.1621139E+01
  0.1500000E+00  0.5339383E+02 -0.2131477E+01  0.1528476E+05 -0.2912240E+01  0.9411958E+04  0.1207145E+01  0.2459054E+05 -0.2579757E+01  0.5953044E+02 -0.2130955E+01  0.6852128E+02 -0.1394298E+01
  0.2000000E+00  0.9458357E+02 -0.2144713E+01  0.2710790E+05 -0.2916862E+01  0.1655902E+05  0.1227745E+01  0.4303970E+05 -0.2589013E+01  0.1049251E+03 -0.2157305E+01  0.1198322E+03 -0.1396174E+01
  0.2500000E+00  0.1490504E+03 -0.2179018E+01  0.4215115E+05 -0.2922283E+01  0.2542924E+05  0.1251145E+01  0.6597488E+05 -0.2601892E+01  0.1584208E+03 -0.2187358E+01  0.1806554E+03 -0.1432221E+01
  0.3000000E+00  0.2098722E+03 -0.2164572E+01  0.6038584E+05 -0.2928670E+01  0.3572881E+05  0.1275925E+01  0.9282979E+05 -0.2617269E+01  0.2165638E+03 -0.2206001E+01  0.2570151E+03 -0.1422715E+01
  0.3500000E+00  0.2778038E+03 -0.2148454E+01  0.8178066E+05 -0.2935880E+01  0.4710112E+05  0.1301222E+01  0.1229889E+06 -0.2635190E+01  0.2888302E+03 -0.2248486E+01  0.3450836E+03 -0.1327350E+01
  0.4000001E+00  0.3629312E+03 -0.2170837E+01  0.1060870E+06 -0.2942928E+01  0.5914872E+05  0.1326196E+01  0.1564155E+06 -0.2657436E+01  0.3682344E+03 -0.2307407E+01  0.4326360E+03 -0.1352543E+01
  0.4500001E+00  0.4546448E+03 -0.2177984E+01  0.1336518E+06 -0.2950205E+01  0.7145839E+05  0.1350026E+01  0.1918486E+06 -0.2680869E+01  0.4612857E+03 -0.2391994E+01  0.5230391E+03 -0.1309128E+01
  0.5000001E+00  0.5519061E+03 -0.2167540E+01  0.1638527E+06 -0.2955886E+01  0.8366077E+05  0.1371804E+01  0.2297158E+06 -0.2706706E+01  0.5676239E+03 -0.2455561E+01  0.6403804E+03 -0.1253735E+01
  0.5500002E+00  0.6576005E+03 -0.2145817E+01  0.1975712E+06 -0.2960332E+01  0.9539980E+05  0.1391003E+01  0.2685363E+06 -0.2732780E+01  0.7158969E+03 -0.2560089E+01  0.7710329E+03 -0.1159821E+01
  0.5999997E+00  0.7875610E+03 -0.2164577E+01  0.2338665E+06 -0.2961632E+01  0.1064088E+06  0.1407742E+01  0.3089309E+06 -0.2760048E+01  0.8691774E+03 -0.2625807E+01  0.8221945E+03 -0.1212096E+01
  0.6500000E+00  0.9103375E+03 -0.2128147E+01  0.2731900E+06 -0.2959159E+01  0.1165177E+06  0.1420827E+01  0.3492324E+06 -0.2785001E+01  0.1076623E+04 -0.2683411E+01  0.9743977E+03 -0.1153986E+01
  0.7000000E+00  0.1057471E+04 -0.2117352E+01  0.3155207E+06 -0.2951948E+01  0.1255987E+06  0.1431017E+01  0.3891548E+06 -0.2808907E+01  0.1333164E+04 -0.2729923E+01  0.1030117E+04 -0.1122719E+01
  0.7500001E+00  0.1204110E+04 -0.2063977E+01  0.3589177E+06 -0.2938227E+01  0.1336492E+06  0.1438211E+01  0.4283448E+06 -0.2829745E+01  0.1643693E+04 -0.2770139E+01  0.1171731E+04 -0.1097659E+01
  0.8000000E+00  0.1360288E+04 -0.2033007E+01  0.4043060E+06 -0.2917998E+01  0.1407070E+06  0.1443272E+01  0.4640982E+06 -0.2847405E+01  0.2004833E+04 -0.2759765E+01  0.1215173E+04 -0.9894437E+00
  0.8500000E+00  0.1526882E+04 -0.1936890E+01  0.4498091E+06 -0.2890131E+01  0.1468749E+06  0.1446438E+01  0.4952081E+06 -0.2861161E+01  0.2458225E+04 -0.2776257E+01  0.1470062E+04 -0.8873154E+00
  0.9000000E+00  0.1693416E+04 -0.1882820E+01  0.4932736E+06 -0.2854012E+01  0.1522010E+06  0.1450362E+01  0.5203729E+06 -0.2872104E+01  0.2884703E+04 -0.2744793E+01  0.1481528E+04 -0.8300673E+00
  0.9500000E+00  0.1858635E+04 -0.1789413E+01  0.5320838E+06 -0.2809654E+01  0.1566777E+06  0.1456115E+01  0.5390238E+06 -0.2881631E+01  0.3454623E+04 -0.2717357E+01  0.1479631E+04 -0.8133225E+00
  0.1000000E+01  0.2001680E+04 -0.1678813E+01  0.5642286E+06 -0.2758209E+01  0.1602627E+06  0.1465221E+01  0.5472372E+06 -0.2891000E+01  0.4062046E+04 -0.2657208E+01  0.1628343E+04 -0.7646062E+00
  0.1050000E+01  0.2169605E+04 -0.1576974E+01  0.5885362E+06 -0.2701290E+01  0.1627333E+06  0.1479340E+01  0.5437706E+06 -0.2904793E+01  0.4655857E+04 -0.2609026E+01  0.1694943E+04 -0.5721081E+00
  0.1100000E+01  0.2329246E+04 -0.1448217E+01  0.6003516E+06 -0.2639606E+01  0.1638300E+06  0.1499120E+01  0.5312431E+06 -0.2926201E+01  0.5377828E+04 -0.2543292E+01  0.1724943E+04 -0.5577342E+00
  0.1150000E+01  0.2495735E+04 -0.1320716E+01  0.5995679E+06 -0.2576404E+01  0.1633364E+06  0.1524759E+01  0.5109446E+06 -0.2960574E+01  0.6123505E+04 -0.2472996E+01  0.1798299E+04 -0.5941791E+00
  0.1200000E+01  0.2710851E+04 -0.1209038E+01  0.5862881E+06 -0.2514147E+01  0.1610315E+06  0.1555788E+01  0.4844281E+06 -0.3013822E+01  0.6781957E+04 -0.2389034E+01  0.1807596E+04 -0.4665788E+00
  0.1250000E+01  0.2939372E+04 -0.1080346E+01  0.5604053E+06 -0.2454882E+01  0.1568511E+06  0.1591067E+01  0.4596055E+06 -0.3087932E+01  0.7773426E+04 -0.2279342E+01  0.1550466E+04 -0.4587069E+00
  0.1300000E+01  0.3423346E+04 -0.9240021E+00  0.5233314E+06 -0.2400669E+01  0.1510711E+06  0.1629516E+01  0.4389510E+06  0.3102478E+01  0.8603313E+04 -0.2200454E+01  0.2211513E+04 -0.4803972E+00
  0.1350000E+01  0.3931587E+04 -0.7806569E+00  0.4781611E+06 -0.2353918E+01  0.1437967E+06  0.1670694E+01  0.4280786E+06  0.2999443E+01  0.9404664E+04 -0.2073227E+01  0.2094349E+04 -0.5519376E+00
  0.1400000E+01  0.4533303E+04 -0.6189141E+00  0.4274612E+06 -0.2315994E+01  0.1352982E+06  0.1714442E+01  0.4279546E+06  0.2903807E+01  0.1052002E+05 -0.1929781E+01  0.1964943E+04 -0.4432703E+00
  0.1450000E+01  0.5341201E+04 -0.4316884E+00  0.3727600E+06 -0.2287901E+01  0.1259964E+06  0.1760114E+01  0.4360122E+06  0.2832167E+01  0.1138630E+05 -0.1781662E+01  0.2005892E+04 -0.5510666E+00
  0.1500000E+01  0.6403496E+04 -0.2395169E+00  0.3159875E+06 -0.2270308E+01  0.1161330E+06  0.1808700E+01  0.4454987E+06  0.2792146E+01  0.1209118E+05 -0.1630396E+01  0.2940851E+04 -0.4744510E+00
  0.1550000E+01  0.7344238E+04 -0.2391572E-01  0.2590758E+06 -0.2265039E+01  0.1058118E+06  0.1860486E+01  0.4507904E+06  0.2787120E+01  0.1265560E+05 -0.1422319E+01  0.2939840E+04 -0.5333672E+00
  0.1600000E+01  0.8180549E+04  0.1791051E+00  0.2025795E+06 -0.2275611E+01  0.9526923E+05  0.1915217E+01  0.4462981E+06  0.2811695E+01  0.1342072E+05 -0.1198679E+01  0.2629719E+04 -0.4189052E+00
  0.1650000E+01  0.9262442E+04  0.3689426E+00  0.1468340E+06 -0.2315054E+01  0.8480323E+05  0.1972113E+01  0.4309915E+06  0.2858812E+01  0.1360988E+05 -0.9945105E+00  0.2164050E+04 -0.4142850E+00
  0.1700000E+01  0.1065855E+05  0.5460929E+00  0.9244105E+05 -0.2429419E+01  0.7457223E+05  0.2030391E+01  0.4046635E+06  0.2921093E+01  0.1313751E+05 -0.8135592E+00  0.2788447E+04 -0.3423586E+00
  0.1750000E+01  0.1156691E+05  0.7130441E+00  0.4535267E+05 -0.2871541E+01  0.6480915E+05  0.2089266E+01  0.3724246E+06  0.2996933E+01  0.1272997E+05 -0.6203864E+00  0.2806027E+04 -0.3630969E+00
  0.1800000E+01  0.1252878E+05  0.8799190E+00  0.4173580E+05  0.2092733E+01  0.5561761E+05  0.2149463E+01  0.3371211E+06  0.3088063E+01  0.1267864E+05 -0.4141491E+00  0.2278362E+04 -0.6783447E+00
  0.1850000E+01  0.1401924E+05  0.1021738E+01  0.8365183E+05  0.1594709E+01  0.4715985E+05  0.2210209E+01  0.3032519E+06 -0.3084208E+01  0.1302945E+05 -0.2148898E+00  0.2219539E+04 -0.1197526E+01
  0.1900000E+01  0.1626357E+05  0.1151456E+01  0.1298216E+06  0.1476023E+01  0.3947252E+05  0.2270029E+01  0.2735264E+06 -0.2951464E+01  0.1383095E+05 -0.3604420E-01  0.3215448E+04 -0.1581372E+01
  0.1950000E+01  0.2005719E+05  0.1284577E+01  0.1725573E+06  0.1442535E+01  0.3239415E+05  0.2325210E+01  0.2505434E+06 -0.2787631E+01  0.1544049E+05  0.1259147E+00  0.4574529E+04 -0.1445579E+01
  0.2000000E+01  0.2806780E+05  0.1448856E+01  0.2099870E+06  0.1439326E+01  0.2544593E+05  0.2362710E+01  0.2371248E+06 -0.2600030E+01  0.2015595E+05  0.3393569E+00  0.5858813E+04 -0.1130380E+01
