VARIABLES="w (rad/s)"
"abs(F   1   1)" "angle(F   1   1)"
"abs(F   1   2)" "angle(F   1   2)"
"abs(F   1   3)" "angle(F   1   3)"
"abs(F   1   4)" "angle(F   1   4)"
"abs(F   1   5)" "angle(F   1   5)"
"abs(F   1   6)" "angle(F   1   6)"
Zone t="Excitation force - beta =   0.000",I=    40,F=POINT
  0.5000000E-01  0.3278506E+04 -0.3139977E+01  0.3949634E+03 -0.1565952E+01  0.9781604E+06 -0.1570803E+01  0.2545222E+04 -0.1568572E+01  0.1611256E+04 -0.2415325E+00  0.2116940E+04  0.2462279E+01
  0.9999999E-01  0.1309476E+05 -0.3140023E+01  0.1571546E+04 -0.1565962E+01  0.9696241E+06 -0.1570861E+01  0.1012868E+05 -0.1568560E+01  0.6256907E+04 -0.8568422E-01  0.6699263E+04  0.2946377E+01
  0.1500000E+00  0.2943528E+05 -0.3140018E+01  0.3519479E+04 -0.1565480E+01  0.9554592E+06 -0.1571087E+01  0.2252277E+05 -0.1568572E+01  0.1399171E+05 -0.5581635E-01  0.1473846E+05  0.3056703E+01
  0.2000000E+00  0.5211332E+05 -0.3140010E+01  0.6179000E+04 -0.1566116E+01  0.9358155E+06 -0.1571660E+01  0.3940084E+05 -0.1569047E+01  0.2459910E+05 -0.4536149E-01  0.2581550E+05  0.3095882E+01
  0.2500000E+00  0.8094632E+05 -0.3139950E+01  0.9498954E+04 -0.1567168E+01  0.9109742E+06 -0.1572809E+01  0.6027256E+05 -0.1570157E+01  0.3792275E+05 -0.4023835E-01  0.3968347E+05  0.3114112E+01
  0.3000000E+00  0.1157376E+06 -0.3139793E+01  0.1341665E+05 -0.1568752E+01  0.8813466E+06 -0.1574796E+01  0.8460493E+05 -0.1571997E+01  0.5365879E+05 -0.3724224E-01  0.5595904E+05  0.3124184E+01
  0.3500000E+00  0.1563179E+06 -0.3139453E+01  0.1785087E+05 -0.1570906E+01  0.8474554E+06 -0.1577895E+01  0.1117533E+06 -0.1574683E+01  0.7143777E+05 -0.3512385E-01  0.7435902E+05  0.3130455E+01
  0.4000001E+00  0.2021711E+06 -0.3138758E+01  0.2273730E+05 -0.1574159E+01  0.8099182E+06 -0.1582375E+01  0.1410388E+06 -0.1578720E+01  0.9143022E+05 -0.3289298E-01  0.9459033E+05  0.3135111E+01
  0.4500001E+00  0.2533653E+06 -0.3137517E+01  0.2798363E+05 -0.1577953E+01  0.7694242E+06 -0.1588489E+01  0.1717524E+06 -0.1583902E+01  0.1124607E+06 -0.3058298E-01  0.1161092E+06  0.3139007E+01
  0.5000001E+00  0.3091481E+06 -0.3135434E+01  0.3353316E+05 -0.1582024E+01  0.7266677E+06 -0.1596458E+01  0.2033328E+06 -0.1590419E+01  0.1351167E+06 -0.2742330E-01  0.1386465E+06 -0.3140136E+01
  0.5500002E+00  0.3698372E+06 -0.3132167E+01  0.3931557E+05 -0.1586305E+01  0.6823737E+06 -0.1606484E+01  0.2350684E+06 -0.1598347E+01  0.1574545E+06 -0.2343957E-01  0.1615292E+06 -0.3135479E+01
  0.5999997E+00  0.4341672E+06 -0.3127257E+01  0.4525302E+05 -0.1590573E+01  0.6372072E+06 -0.1618740E+01  0.2662644E+06 -0.1607565E+01  0.1808772E+06 -0.1751438E-01  0.1848124E+06 -0.3129354E+01
  0.6500000E+00  0.5025486E+06 -0.3120240E+01  0.5130273E+05 -0.1593358E+01  0.5917929E+06 -0.1633379E+01  0.2968145E+06 -0.1617925E+01  0.2027846E+06 -0.9748867E-02  0.2073711E+06 -0.3121476E+01
  0.7000000E+00  0.5739264E+06 -0.3110547E+01  0.5739910E+05 -0.1594962E+01  0.5467167E+06 -0.1650553E+01  0.3258379E+06 -0.1629138E+01  0.2234058E+06  0.7894148E-03  0.2292090E+06 -0.3110910E+01
  0.7500001E+00  0.6468104E+06 -0.3097614E+01  0.6339867E+05 -0.1593851E+01  0.5024790E+06 -0.1670380E+01  0.3532879E+06 -0.1641096E+01  0.2427766E+06  0.1457290E-01  0.2494453E+06 -0.3097402E+01
  0.8000000E+00  0.7208382E+06 -0.3081014E+01  0.6926439E+05 -0.1590292E+01  0.4595142E+06 -0.1693056E+01  0.3785169E+06 -0.1653440E+01  0.2585953E+06  0.3230687E-01  0.2678704E+06 -0.3079948E+01
  0.8500000E+00  0.7943956E+06 -0.3060338E+01  0.7486574E+05 -0.1582837E+01  0.4182159E+06 -0.1718644E+01  0.4018359E+06 -0.1665949E+01  0.2691582E+06  0.5369824E-01  0.2827855E+06 -0.3058873E+01
  0.9000000E+00  0.8643219E+06 -0.3035300E+01  0.8000495E+05 -0.1572178E+01  0.3788748E+06 -0.1747339E+01  0.4223974E+06 -0.1678385E+01  0.2757662E+06  0.8032677E-01  0.2946550E+06 -0.3032752E+01
  0.9500000E+00  0.9277098E+06 -0.3006255E+01  0.8458134E+05 -0.1558124E+01  0.3417712E+06 -0.1779204E+01  0.4404387E+06 -0.1690484E+01  0.2770344E+06  0.1111523E+00  0.3020587E+06 -0.3002593E+01
  0.1000000E+01  0.9822141E+06 -0.2974041E+01  0.8843461E+05 -0.1540511E+01  0.3070828E+06 -0.1814308E+01  0.4561578E+06 -0.1701646E+01  0.2705179E+06  0.1456569E+00  0.3042291E+06 -0.2969257E+01
  0.1050000E+01  0.1025247E+07 -0.2939840E+01  0.9140369E+05 -0.1520594E+01  0.2749493E+06 -0.1852551E+01  0.4689560E+06 -0.1711443E+01  0.2557877E+06  0.1828587E+00  0.3010207E+06 -0.2932839E+01
  0.1100000E+01  0.1053286E+07 -0.2905287E+01  0.9344543E+05 -0.1498980E+01  0.2453653E+06 -0.1893766E+01  0.4795542E+06 -0.1719128E+01  0.2341973E+06  0.2219726E+00  0.2919462E+06 -0.2896158E+01
  0.1150000E+01  0.1065234E+07 -0.2872715E+01  0.9463129E+05 -0.1475808E+01  0.2183673E+06 -0.1937548E+01  0.4881205E+06 -0.1723628E+01  0.2059791E+06  0.2613869E+00  0.2776002E+06 -0.2860898E+01
  0.1200000E+01  0.1061452E+07 -0.2844405E+01  0.9483445E+05 -0.1452114E+01  0.1938501E+06 -0.1983343E+01  0.4937744E+06 -0.1723829E+01  0.1720887E+06  0.3014977E+00  0.2590604E+06 -0.2827756E+01
  0.1250000E+01  0.1042432E+07 -0.2822367E+01  0.9441075E+05 -0.1426904E+01  0.1716597E+06 -0.2030696E+01  0.4974344E+06 -0.1717456E+01  0.1345845E+06  0.3456499E+00  0.2368628E+06 -0.2799834E+01
  0.1300000E+01  0.1011025E+07 -0.2808704E+01  0.9312041E+05 -0.1398534E+01  0.1516239E+06 -0.2078232E+01  0.4979908E+06 -0.1702826E+01  0.9504277E+05  0.3974712E+00  0.2121195E+06 -0.2782829E+01
  0.1350000E+01  0.9700386E+06 -0.2804311E+01  0.9131375E+05 -0.1365393E+01  0.1335059E+06 -0.2125171E+01  0.4949341E+06 -0.1678055E+01  0.5578433E+05  0.5066034E+00  0.1868618E+06 -0.2769958E+01
  0.1400000E+01  0.9223942E+06 -0.2809964E+01  0.8871315E+05 -0.1325306E+01  0.1170943E+06 -0.2170594E+01  0.4865465E+06 -0.1641773E+01  0.2056000E+05  0.1019530E+01  0.1618990E+06 -0.2764592E+01
  0.1450000E+01  0.8710580E+06 -0.2826123E+01  0.8521110E+05 -0.1275233E+01  0.1020918E+06 -0.2213668E+01  0.4712376E+06 -0.1590955E+01  0.2719056E+05  0.2822596E+01  0.1374619E+06 -0.2771435E+01
  0.1500000E+01  0.8178290E+06 -0.2852894E+01  0.8038237E+05 -0.1216842E+01  0.8825576E+05 -0.2254160E+01  0.4476917E+06 -0.1528577E+01  0.6048598E+05  0.3117051E+01  0.1146260E+06 -0.2796987E+01
  0.1550000E+01  0.7644849E+06 -0.2889527E+01  0.7425610E+05 -0.1150734E+01  0.7541604E+05 -0.2293296E+01  0.4147984E+06 -0.1457722E+01  0.9319012E+05 -0.3114988E+01  0.9331463E+05 -0.2825469E+01
  0.1600000E+01  0.7117400E+06 -0.2936589E+01  0.6679202E+05 -0.1084579E+01  0.6362300E+05 -0.2333801E+01  0.3733655E+06 -0.1385378E+01  0.1233801E+06 -0.3118483E+01  0.7406507E+05 -0.2866642E+01
  0.1650000E+01  0.6609378E+06 -0.2994480E+01  0.5861216E+05 -0.1020043E+01  0.5292398E+05 -0.2378047E+01  0.3266050E+06 -0.1315161E+01  0.1499049E+06 -0.3139655E+01  0.5669677E+05 -0.2929810E+01
  0.1700000E+01  0.6130548E+06 -0.3063755E+01  0.5012773E+05 -0.9713327E+00  0.4345424E+05 -0.2431142E+01  0.2782392E+06 -0.1258032E+01  0.1724497E+06  0.3108902E+01  0.4228497E+05 -0.3047386E+01
  0.1750000E+01  0.5683319E+06  0.3138019E+01  0.4204475E+05 -0.9329998E+00  0.3522087E+05 -0.2492626E+01  0.2322025E+06 -0.1212972E+01  0.1916265E+06  0.3058078E+01  0.3006422E+05  0.3046993E+01
  0.1800000E+01  0.5281704E+06  0.3044296E+01  0.3465620E+05 -0.9199505E+00  0.2822720E+05 -0.2564757E+01  0.1905418E+06 -0.1188917E+01  0.2077372E+06  0.2992648E+01  0.2061277E+05  0.2722221E+01
  0.1850000E+01  0.4940753E+06  0.2938328E+01  0.2822686E+05 -0.9249166E+00  0.2229178E+05 -0.2643508E+01  0.1545341E+06 -0.1182517E+01  0.2211730E+06  0.2914153E+01  0.1612311E+05  0.2213588E+01
  0.1900000E+01  0.4668070E+06  0.2822120E+01  0.2288982E+05 -0.9412342E+00  0.1721209E+05 -0.2725126E+01  0.1243739E+06 -0.1186205E+01  0.2324689E+06  0.2823086E+01  0.1664432E+05  0.1702146E+01
  0.1950000E+01  0.4471132E+06  0.2698786E+01  0.1859980E+05 -0.9895201E+00  0.1274578E+05 -0.2806743E+01  0.9989674E+05 -0.1216371E+01  0.2424032E+06  0.2719894E+01  0.1963124E+05  0.1411059E+01
  0.2000000E+01  0.4366242E+06  0.2569790E+01  0.1516850E+05 -0.1056480E+01  0.8244175E+04 -0.2864848E+01  0.8059220E+05 -0.1259669E+01  0.2515922E+06  0.2599775E+01  0.2358433E+05  0.1251610E+01
Zone t="Excitation force - beta =  90.000",I=    40,F=POINT
  0.5000000E-01  0.6153346E+01 -0.2119516E+01  0.3546551E+04 -0.3030267E+01  0.9781604E+06 -0.1570388E+01  0.3840095E+04 -0.2418247E+01  0.3850988E+03 -0.1584954E+01  0.1330092E+04  0.1567244E+01
  0.9999999E-01  0.2449326E+02 -0.2129068E+01  0.1416399E+05 -0.3031311E+01  0.9696248E+06 -0.1569187E+01  0.1526759E+05 -0.2421625E+01  0.5360682E+03 -0.1611326E+01  0.1299151E+04  0.1556283E+01
  0.1500000E+00  0.5310215E+02 -0.2068945E+01  0.3179752E+05 -0.3032767E+01  0.9554635E+06 -0.1567271E+01  0.3395143E+05 -0.2428519E+01  0.7842775E+03 -0.1632195E+01  0.1250748E+04  0.1524682E+01
  0.2000000E+00  0.9444587E+02 -0.2080237E+01  0.5627125E+05 -0.3035220E+01  0.9358284E+06 -0.1564775E+01  0.5928032E+05 -0.2436400E+01  0.1125920E+04 -0.1649828E+01  0.1183811E+04  0.1485182E+01
  0.2500000E+00  0.1497259E+03 -0.2111445E+01  0.8733195E+05 -0.3038236E+01  0.9110056E+06 -0.1561853E+01  0.9054666E+05 -0.2447397E+01  0.1551831E+04 -0.1662876E+01  0.1102975E+04  0.1435146E+01
  0.3000000E+00  0.2131119E+03 -0.2091618E+01  0.1247681E+06 -0.3041759E+01  0.8814102E+06 -0.1558656E+01  0.1268346E+06 -0.2460651E+01  0.2054793E+04 -0.1671719E+01  0.1006703E+04  0.1356415E+01
  0.3500000E+00  0.2862261E+03 -0.2068769E+01  0.1683274E+06 -0.3045694E+01  0.8475674E+06 -0.1555320E+01  0.1671182E+06 -0.2476263E+01  0.2631872E+04 -0.1683339E+01  0.9186929E+03  0.1216468E+01
  0.4000001E+00  0.3780407E+03 -0.2085690E+01  0.2174963E+06 -0.3049674E+01  0.8100922E+06 -0.1551941E+01  0.2108581E+06 -0.2496080E+01  0.3266667E+04 -0.1695950E+01  0.8239901E+03  0.1071419E+01
  0.4500001E+00  0.4805575E+03 -0.2086136E+01  0.2723317E+06 -0.3053663E+01  0.7696586E+06 -0.1548550E+01  0.2563913E+06 -0.2517287E+01  0.3950189E+04 -0.1711835E+01  0.7697149E+03  0.8532537E+00
  0.5000001E+00  0.5938442E+03 -0.2069464E+01  0.3318645E+06 -0.3057009E+01  0.7269352E+06 -0.1545068E+01  0.3036219E+06 -0.2541539E+01  0.4682077E+04 -0.1726637E+01  0.7603159E+03  0.5627143E+00
  0.5500002E+00  0.7223051E+03 -0.2042809E+01  0.3966207E+06 -0.3059559E+01  0.6825969E+06 -0.1541345E+01  0.3507015E+06 -0.2566729E+01  0.5447050E+04 -0.1749696E+01  0.8545294E+03  0.2657589E+00
  0.5999997E+00  0.8782151E+03 -0.2055428E+01  0.4652424E+06 -0.3060603E+01  0.6372316E+06 -0.1537220E+01  0.3977773E+06 -0.2594214E+01  0.6240295E+04 -0.1768432E+01  0.8789852E+03  0.7598384E-01
  0.6500000E+00  0.1039267E+04 -0.2017425E+01  0.5377448E+06 -0.3059630E+01  0.5913688E+06 -0.1532212E+01  0.4430092E+06 -0.2620841E+01  0.7073881E+04 -0.1791429E+01  0.1061086E+04 -0.1524218E+00
  0.7000000E+00  0.1230542E+04 -0.2004744E+01  0.6136288E+06 -0.3056072E+01  0.5454578E+06 -0.1526062E+01  0.4857522E+06 -0.2647718E+01  0.7937923E+04 -0.1816793E+01  0.1201890E+04 -0.2673502E+00
  0.7500001E+00  0.1435723E+04 -0.1956517E+01  0.6904100E+06 -0.3049205E+01  0.4998433E+06 -0.1518255E+01  0.5255388E+06 -0.2673289E+01  0.8825012E+04 -0.1844692E+01  0.1411394E+04 -0.4101959E+00
  0.8000000E+00  0.1658129E+04 -0.1929031E+01  0.7684509E+06 -0.3038686E+01  0.4548055E+06 -0.1508428E+01  0.5595273E+06 -0.2696780E+01  0.9796999E+04 -0.1868643E+01  0.1609629E+04 -0.4342565E+00
  0.8500000E+00  0.1909847E+04 -0.1851384E+01  0.8452189E+06 -0.3024032E+01  0.4105675E+06 -0.1495958E+01  0.5864363E+06 -0.2717454E+01  0.1077301E+05 -0.1900132E+01  0.1979979E+04 -0.5026960E+00
  0.9000000E+00  0.2166033E+04 -0.1809872E+01  0.9178428E+06 -0.3005068E+01  0.3673252E+06 -0.1481058E+01  0.6047996E+06 -0.2736053E+01  0.1180864E+05 -0.1919573E+01  0.2090999E+04 -0.5363805E+00
  0.9500000E+00  0.2433967E+04 -0.1740313E+01  0.9829682E+06 -0.2982101E+01  0.3253429E+06 -0.1463617E+01  0.6138954E+06 -0.2753802E+01  0.1292885E+05 -0.1944713E+01  0.2155494E+04 -0.6008003E+00
  0.1000000E+01  0.2685462E+04 -0.1660997E+01  0.1037936E+07 -0.2956092E+01  0.2848763E+06 -0.1443911E+01  0.6097431E+06 -0.2771221E+01  0.1415473E+05 -0.1960581E+01  0.2362222E+04 -0.6578001E+00
  0.1050000E+01  0.2962208E+04 -0.1591912E+01  0.1081075E+07 -0.2928255E+01  0.2463188E+06 -0.1422853E+01  0.5908955E+06 -0.2792597E+01  0.1533401E+05 -0.1973821E+01  0.2461376E+04 -0.6104824E+00
  0.1100000E+01  0.3224249E+04 -0.1506305E+01  0.1107408E+07 -0.2900289E+01  0.2101102E+06 -0.1401443E+01  0.5599984E+06 -0.2822135E+01  0.1665353E+05 -0.1983105E+01  0.2483256E+04 -0.6909128E+00
  0.1150000E+01  0.3480477E+04 -0.1424393E+01  0.1117092E+07 -0.2874618E+01  0.1766540E+06 -0.1380976E+01  0.5184803E+06 -0.2866615E+01  0.1798936E+05 -0.1986683E+01  0.2550444E+04 -0.8113058E+00
  0.1200000E+01  0.3771930E+04 -0.1354009E+01  0.1110795E+07 -0.2853345E+01  0.1463758E+06 -0.1362869E+01  0.4683775E+06 -0.2935244E+01  0.1925254E+05 -0.1979449E+01  0.2459381E+04 -0.8351361E+00
  0.1250000E+01  0.4046767E+04 -0.1271582E+01  0.1089292E+07 -0.2838575E+01  0.1195608E+06 -0.1348049E+01  0.4188264E+06 -0.3037152E+01  0.2083952E+05 -0.1964734E+01  0.2180969E+04 -0.1016705E+01
  0.1300000E+01  0.4516293E+04 -0.1155428E+01  0.1055070E+07 -0.2832039E+01  0.9612803E+05 -0.1336869E+01  0.3744849E+06  0.3105062E+01  0.2213336E+05 -0.1952679E+01  0.2717348E+04 -0.1034127E+01
  0.1350000E+01  0.4966547E+04 -0.1043680E+01  0.1012306E+07 -0.2834758E+01  0.7610409E+05 -0.1330745E+01  0.3438998E+06  0.2928835E+01  0.2339937E+05 -0.1917586E+01  0.2672594E+04 -0.1254825E+01
  0.1400000E+01  0.5425731E+04 -0.9080714E+00  0.9642843E+06 -0.2846916E+01  0.5930843E+05 -0.1331543E+01  0.3299885E+06  0.2743858E+01  0.2483951E+05 -0.1871647E+01  0.2425388E+04 -0.1410068E+01
  0.1450000E+01  0.5969708E+04 -0.7339038E+00  0.9129814E+06 -0.2868559E+01  0.4537415E+05 -0.1339961E+01  0.3290162E+06  0.2584079E+01  0.2582654E+05 -0.1816670E+01  0.2692782E+04 -0.1631867E+01
  0.1500000E+01  0.6661672E+04 -0.5341130E+00  0.8602665E+06 -0.2898945E+01  0.3406195E+05 -0.1361959E+01  0.3309797E+06  0.2465574E+01  0.2640707E+05 -0.1755810E+01  0.3047755E+04 -0.1503361E+01
  0.1550000E+01  0.7114279E+04 -0.3064627E+00  0.8077288E+06 -0.2937060E+01  0.2526144E+05 -0.1403439E+01  0.3267310E+06  0.2390386E+01  0.2642090E+05 -0.1665371E+01  0.3255682E+04 -0.1714216E+01
  0.1600000E+01  0.7438814E+04 -0.8064576E-01  0.7555247E+06 -0.2982587E+01  0.1868977E+05 -0.1466854E+01  0.3094030E+06  0.2343264E+01  0.2611769E+05 -0.1559721E+01  0.3052425E+04 -0.1984183E+01
  0.1650000E+01  0.8018069E+04  0.1517903E+00  0.7038685E+06 -0.3036237E+01  0.1392454E+05 -0.1546633E+01  0.2783427E+06  0.2307764E+01  0.2491725E+05 -0.1465837E+01  0.3454646E+04 -0.2307004E+01
  0.1700000E+01  0.8965951E+04  0.3833582E+00  0.6530286E+06 -0.3099598E+01  0.1059272E+05 -0.1623387E+01  0.2353710E+06  0.2261202E+01  0.2295013E+05 -0.1395043E+01  0.3489606E+04 -0.2321698E+01
  0.1750000E+01  0.9520199E+04  0.5967037E+00  0.6048469E+06  0.3109150E+01  0.8209332E+04 -0.1669031E+01  0.1866090E+06  0.2189945E+01  0.2070728E+05 -0.1319360E+01  0.3996636E+04 -0.2466132E+01
  0.1800000E+01  0.1022491E+05  0.8128055E+00  0.5604303E+06  0.3022868E+01  0.6505417E+04 -0.1656382E+01  0.1361168E+06  0.2064494E+01  0.1837454E+05 -0.1225455E+01  0.5478751E+04 -0.2609592E+01
  0.1850000E+01  0.1158921E+05  0.9977833E+00  0.5214460E+06  0.2924906E+01  0.5219582E+04 -0.1557687E+01  0.8914222E+05  0.1826249E+01  0.1611136E+05 -0.1109009E+01  0.7209497E+04 -0.2678240E+01
  0.1900000E+01  0.1381597E+05  0.1160378E+01  0.4889878E+06  0.2817250E+01  0.4318031E+04 -0.1339678E+01  0.5440360E+05  0.1280813E+01  0.1410320E+05 -0.9568621E+00  0.9053479E+04 -0.2667206E+01
  0.1950000E+01  0.1769310E+05  0.1314741E+01  0.4628723E+06  0.2705003E+01  0.4076497E+04 -0.9797402E+00  0.5107231E+05  0.3116167E+00  0.1267985E+05 -0.7242809E+00  0.9696907E+04 -0.2577706E+01
  0.2000000E+01  0.2591308E+05  0.1487126E+01  0.4422066E+06  0.2592817E+01  0.5159502E+04 -0.5758522E+00  0.7851119E+05 -0.2893788E+00  0.1339752E+05 -0.2160319E+00  0.8973294E+04 -0.2463713E+01
