VARIABLES="w (rad/s)"
"abs(F   1   1)" "angle(F   1   1)"
"abs(F   1   2)" "angle(F   1   2)"
"abs(F   1   3)" "angle(F   1   3)"
"abs(F   1   4)" "angle(F   1   4)"
"abs(F   1   5)" "angle(F   1   5)"
"abs(F   1   6)" "angle(F   1   6)"
Zone t="Excitation force - beta =   0.000",I=    40,F=POINT
  0.5000000E-01  0.3278506E+04 -0.3139995E+01  0.3949909E+03 -0.1565953E+01  0.9781602E+06 -0.1570803E+01  0.2545527E+04 -0.1568572E+01  0.1611245E+04 -0.2415032E+00  0.2117000E+04  0.2462244E+01
  0.9999999E-01  0.1309475E+05 -0.3140019E+01  0.1571723E+04 -0.1565963E+01  0.9696241E+06 -0.1570861E+01  0.1012839E+05 -0.1568560E+01  0.6256886E+04 -0.8565293E-01  0.6699223E+04  0.2946401E+01
  0.1500000E+00  0.2943528E+05 -0.3140019E+01  0.3519481E+04 -0.1565480E+01  0.9554592E+06 -0.1571087E+01  0.2252277E+05 -0.1568572E+01  0.1399173E+05 -0.5583877E-01  0.1473847E+05  0.3056695E+01
  0.2000000E+00  0.5211330E+05 -0.3140010E+01  0.6179046E+04 -0.1566116E+01  0.9358154E+06 -0.1571660E+01  0.3940034E+05 -0.1569047E+01  0.2459909E+05 -0.4535622E-01  0.2581550E+05  0.3095882E+01
  0.2500000E+00  0.8094630E+05 -0.3139950E+01  0.9498890E+04 -0.1567168E+01  0.9109742E+06 -0.1572809E+01  0.6027252E+05 -0.1570157E+01  0.3792277E+05 -0.4024116E-01  0.3968345E+05  0.3114117E+01
  0.3000000E+00  0.1157376E+06 -0.3139792E+01  0.1341664E+05 -0.1568752E+01  0.8813466E+06 -0.1574796E+01  0.8460495E+05 -0.1571997E+01  0.5365882E+05 -0.3724350E-01  0.5595904E+05  0.3124186E+01
  0.3500000E+00  0.1563179E+06 -0.3139453E+01  0.1785087E+05 -0.1570906E+01  0.8474554E+06 -0.1577895E+01  0.1117533E+06 -0.1574683E+01  0.7143775E+05 -0.3512285E-01  0.7435903E+05  0.3130454E+01
  0.4000001E+00  0.2021711E+06 -0.3138758E+01  0.2273730E+05 -0.1574159E+01  0.8099182E+06 -0.1582375E+01  0.1410390E+06 -0.1578720E+01  0.9143028E+05 -0.3289256E-01  0.9459038E+05  0.3135110E+01
  0.4499998E+00  0.2533650E+06 -0.3137517E+01  0.2798359E+05 -0.1577954E+01  0.7694241E+06 -0.1588489E+01  0.1717523E+06 -0.1583902E+01  0.1124608E+06 -0.3058387E-01  0.1161091E+06  0.3139006E+01
  0.5000001E+00  0.3091481E+06 -0.3135434E+01  0.3353312E+05 -0.1582024E+01  0.7266677E+06 -0.1596458E+01  0.2033328E+06 -0.1590419E+01  0.1351167E+06 -0.2742330E-01  0.1386464E+06 -0.3140136E+01
  0.5500002E+00  0.3698372E+06 -0.3132167E+01  0.3931562E+05 -0.1586305E+01  0.6823738E+06 -0.1606484E+01  0.2350686E+06 -0.1598347E+01  0.1574545E+06 -0.2344042E-01  0.1615292E+06 -0.3135480E+01
  0.5999997E+00  0.4341671E+06 -0.3127257E+01  0.4525295E+05 -0.1590573E+01  0.6372072E+06 -0.1618740E+01  0.2662643E+06 -0.1607566E+01  0.1808772E+06 -0.1751396E-01  0.1848125E+06 -0.3129354E+01
  0.6500000E+00  0.5025485E+06 -0.3120240E+01  0.5130274E+05 -0.1593358E+01  0.5917929E+06 -0.1633379E+01  0.2968147E+06 -0.1617925E+01  0.2027846E+06 -0.9749106E-02  0.2073711E+06 -0.3121476E+01
  0.6999999E+00  0.5739263E+06 -0.3110547E+01  0.5739911E+05 -0.1594962E+01  0.5467168E+06 -0.1650553E+01  0.3258376E+06 -0.1629138E+01  0.2234057E+06  0.7889497E-03  0.2292089E+06 -0.3110910E+01
  0.7500000E+00  0.6468103E+06 -0.3097614E+01  0.6339874E+05 -0.1593850E+01  0.5024789E+06 -0.1670379E+01  0.3532876E+06 -0.1641096E+01  0.2427765E+06  0.1457243E-01  0.2494453E+06 -0.3097402E+01
  0.8000000E+00  0.7208381E+06 -0.3081014E+01  0.6926441E+05 -0.1590292E+01  0.4595142E+06 -0.1693056E+01  0.3785168E+06 -0.1653440E+01  0.2585952E+06  0.3230621E-01  0.2678707E+06 -0.3079948E+01
  0.8500000E+00  0.7943956E+06 -0.3060338E+01  0.7486577E+05 -0.1582836E+01  0.4182159E+06 -0.1718644E+01  0.4018360E+06 -0.1665949E+01  0.2691583E+06  0.5369800E-01  0.2827855E+06 -0.3058874E+01
  0.8999999E+00  0.8643217E+06 -0.3035300E+01  0.8000496E+05 -0.1572178E+01  0.3788748E+06 -0.1747339E+01  0.4223973E+06 -0.1678385E+01  0.2757661E+06  0.8032641E-01  0.2946550E+06 -0.3032752E+01
  0.9499999E+00  0.9277097E+06 -0.3006255E+01  0.8458140E+05 -0.1558124E+01  0.3417712E+06 -0.1779204E+01  0.4404387E+06 -0.1690484E+01  0.2770344E+06  0.1111524E+00  0.3020588E+06 -0.3002593E+01
  0.9999999E+00  0.9822138E+06 -0.2974042E+01  0.8843470E+05 -0.1540511E+01  0.3070828E+06 -0.1814308E+01  0.4561578E+06 -0.1701646E+01  0.2705179E+06  0.1456570E+00  0.3042289E+06 -0.2969258E+01
  0.1050000E+01  0.1025247E+07 -0.2939840E+01  0.9140363E+05 -0.1520593E+01  0.2749493E+06 -0.1852551E+01  0.4689557E+06 -0.1711443E+01  0.2557875E+06  0.1828590E+00  0.3010208E+06 -0.2932839E+01
  0.1100000E+01  0.1053286E+07 -0.2905287E+01  0.9344547E+05 -0.1498979E+01  0.2453653E+06 -0.1893766E+01  0.4795541E+06 -0.1719128E+01  0.2341974E+06  0.2219719E+00  0.2919461E+06 -0.2896157E+01
  0.1150000E+01  0.1065234E+07 -0.2872715E+01  0.9463134E+05 -0.1475808E+01  0.2183672E+06 -0.1937548E+01  0.4881205E+06 -0.1723629E+01  0.2059792E+06  0.2613867E+00  0.2776000E+06 -0.2860898E+01
  0.1200000E+01  0.1061451E+07 -0.2844405E+01  0.9483430E+05 -0.1452113E+01  0.1938501E+06 -0.1983343E+01  0.4937745E+06 -0.1723829E+01  0.1720888E+06  0.3014985E+00  0.2590604E+06 -0.2827756E+01
  0.1250000E+01  0.1042431E+07 -0.2822367E+01  0.9441081E+05 -0.1426904E+01  0.1716596E+06 -0.2030696E+01  0.4974344E+06 -0.1717457E+01  0.1345846E+06  0.3456496E+00  0.2368627E+06 -0.2799833E+01
  0.1300000E+01  0.1011024E+07 -0.2808704E+01  0.9312037E+05 -0.1398534E+01  0.1516239E+06 -0.2078232E+01  0.4979909E+06 -0.1702826E+01  0.9504284E+05  0.3974704E+00  0.2121195E+06 -0.2782829E+01
  0.1350000E+01  0.9700389E+06 -0.2804311E+01  0.9131373E+05 -0.1365393E+01  0.1335060E+06 -0.2125171E+01  0.4949339E+06 -0.1678055E+01  0.5578439E+05  0.5066019E+00  0.1868620E+06 -0.2769957E+01
  0.1400000E+01  0.9223943E+06 -0.2809964E+01  0.8871312E+05 -0.1325305E+01  0.1170943E+06 -0.2170594E+01  0.4865466E+06 -0.1641773E+01  0.2056006E+05  0.1019527E+01  0.1618990E+06 -0.2764591E+01
  0.1450000E+01  0.8710582E+06 -0.2826123E+01  0.8521123E+05 -0.1275233E+01  0.1020919E+06 -0.2213667E+01  0.4712377E+06 -0.1590955E+01  0.2719035E+05  0.2822593E+01  0.1374621E+06 -0.2771435E+01
  0.1500000E+01  0.8178289E+06 -0.2852894E+01  0.8038238E+05 -0.1216842E+01  0.8825581E+05 -0.2254160E+01  0.4476915E+06 -0.1528577E+01  0.6048609E+05  0.3117050E+01  0.1146260E+06 -0.2796986E+01
  0.1550000E+01  0.7644851E+06 -0.2889527E+01  0.7425614E+05 -0.1150733E+01  0.7541605E+05 -0.2293296E+01  0.4147984E+06 -0.1457722E+01  0.9319006E+05 -0.3114988E+01  0.9331464E+05 -0.2825469E+01
  0.1600000E+01  0.7117402E+06 -0.2936589E+01  0.6679200E+05 -0.1084580E+01  0.6362304E+05 -0.2333801E+01  0.3733657E+06 -0.1385378E+01  0.1233801E+06 -0.3118483E+01  0.7406505E+05 -0.2866641E+01
  0.1650000E+01  0.6609379E+06 -0.2994480E+01  0.5861221E+05 -0.1020045E+01  0.5292403E+05 -0.2378047E+01  0.3266052E+06 -0.1315162E+01  0.1499049E+06 -0.3139656E+01  0.5669685E+05 -0.2929809E+01
  0.1700000E+01  0.6130548E+06 -0.3063755E+01  0.5012784E+05 -0.9713347E+00  0.4345423E+05 -0.2431141E+01  0.2782393E+06 -0.1258033E+01  0.1724498E+06  0.3108902E+01  0.4228504E+05 -0.3047386E+01
  0.1750000E+01  0.5683319E+06  0.3138020E+01  0.4204480E+05 -0.9330030E+00  0.3522087E+05 -0.2492625E+01  0.2322026E+06 -0.1212972E+01  0.1916264E+06  0.3058079E+01  0.3006405E+05  0.3046995E+01
  0.1800000E+01  0.5281704E+06  0.3044297E+01  0.3465608E+05 -0.9199489E+00  0.2822721E+05 -0.2564756E+01  0.1905418E+06 -0.1188918E+01  0.2077372E+06  0.2992648E+01  0.2061254E+05  0.2722225E+01
  0.1850000E+01  0.4940752E+06  0.2938328E+01  0.2822695E+05 -0.9249208E+00  0.2229181E+05 -0.2643507E+01  0.1545340E+06 -0.1182517E+01  0.2211729E+06  0.2914152E+01  0.1612307E+05  0.2213589E+01
  0.1900000E+01  0.4668070E+06  0.2822120E+01  0.2288989E+05 -0.9412343E+00  0.1721210E+05 -0.2725125E+01  0.1243738E+06 -0.1186205E+01  0.2324689E+06  0.2823086E+01  0.1664427E+05  0.1702143E+01
  0.1950000E+01  0.4471131E+06  0.2698787E+01  0.1859969E+05 -0.9895163E+00  0.1274579E+05 -0.2806745E+01  0.9989680E+05 -0.1216372E+01  0.2424031E+06  0.2719894E+01  0.1963105E+05  0.1411068E+01
  0.2000000E+01  0.4366243E+06  0.2569790E+01  0.1516847E+05 -0.1056477E+01  0.8244181E+04 -0.2864845E+01  0.8059219E+05 -0.1259671E+01  0.2515921E+06  0.2599775E+01  0.2358430E+05  0.1251606E+01
Zone t="Excitation force - beta =  90.000",I=    40,F=POINT
  0.5000000E-01  0.6126688E+01 -0.2122170E+01  0.3546551E+04 -0.3030267E+01  0.9781604E+06 -0.1570388E+01  0.3840428E+04 -0.2418149E+01  0.3850922E+03 -0.1584955E+01  0.1329967E+04  0.1567244E+01
  0.9999999E-01  0.2445140E+02 -0.2130117E+01  0.1416404E+05 -0.3031282E+01  0.9696248E+06 -0.1569187E+01  0.1526765E+05 -0.2421621E+01  0.5361039E+03 -0.1611324E+01  0.1299111E+04  0.1556281E+01
  0.1500000E+00  0.5302112E+02 -0.2069742E+01  0.3179753E+05 -0.3032764E+01  0.9554635E+06 -0.1567271E+01  0.3395166E+05 -0.2428511E+01  0.7843987E+03 -0.1632186E+01  0.1250824E+04  0.1524682E+01
  0.2000000E+00  0.9445719E+02 -0.2080174E+01  0.5627124E+05 -0.3035220E+01  0.9358282E+06 -0.1564775E+01  0.5927998E+05 -0.2436407E+01  0.1126071E+04 -0.1649819E+01  0.1183778E+04  0.1485181E+01
  0.2500000E+00  0.1497978E+03 -0.2111163E+01  0.8733194E+05 -0.3038236E+01  0.9110056E+06 -0.1561853E+01  0.9054662E+05 -0.2447397E+01  0.1551723E+04 -0.1662885E+01  0.1102978E+04  0.1435156E+01
  0.3000000E+00  0.2130993E+03 -0.2091664E+01  0.1247681E+06 -0.3041759E+01  0.8814102E+06 -0.1558656E+01  0.1268348E+06 -0.2460649E+01  0.2055040E+04 -0.1671700E+01  0.1006749E+04  0.1356408E+01
  0.3500000E+00  0.2861920E+03 -0.2068849E+01  0.1683274E+06 -0.3045696E+01  0.8475674E+06 -0.1555320E+01  0.1671182E+06 -0.2476262E+01  0.2631859E+04 -0.1683341E+01  0.9186793E+03  0.1216483E+01
  0.4000001E+00  0.3780506E+03 -0.2085707E+01  0.2174964E+06 -0.3049673E+01  0.8100922E+06 -0.1551941E+01  0.2108583E+06 -0.2496078E+01  0.3266665E+04 -0.1695949E+01  0.8239437E+03  0.1071371E+01
  0.4499998E+00  0.4805884E+03 -0.2086108E+01  0.2723315E+06 -0.3053663E+01  0.7696587E+06 -0.1548550E+01  0.2563911E+06 -0.2517287E+01  0.3949983E+04 -0.1711842E+01  0.7695875E+03  0.8531800E+00
  0.5000001E+00  0.5938159E+03 -0.2069463E+01  0.3318645E+06 -0.3057009E+01  0.7269352E+06 -0.1545068E+01  0.3036220E+06 -0.2541538E+01  0.4681888E+04 -0.1726645E+01  0.7603406E+03  0.5628380E+00
  0.5500002E+00  0.7223087E+03 -0.2042815E+01  0.3966206E+06 -0.3059559E+01  0.6825969E+06 -0.1541345E+01  0.3507016E+06 -0.2566728E+01  0.5447007E+04 -0.1749691E+01  0.8544147E+03  0.2655823E+00
  0.5999997E+00  0.8782033E+03 -0.2055437E+01  0.4652424E+06 -0.3060603E+01  0.6372315E+06 -0.1537220E+01  0.3977773E+06 -0.2594214E+01  0.6240275E+04 -0.1768425E+01  0.8790604E+03  0.7613896E-01
  0.6500000E+00  0.1039324E+04 -0.2017421E+01  0.5377448E+06 -0.3059630E+01  0.5913688E+06 -0.1532212E+01  0.4430094E+06 -0.2620840E+01  0.7073855E+04 -0.1791434E+01  0.1061058E+04 -0.1524519E+00
  0.6999999E+00  0.1230542E+04 -0.2004732E+01  0.6136287E+06 -0.3056072E+01  0.5454578E+06 -0.1526062E+01  0.4857520E+06 -0.2647718E+01  0.7938001E+04 -0.1816786E+01  0.1201940E+04 -0.2671458E+00
  0.7500000E+00  0.1435779E+04 -0.1956519E+01  0.6904098E+06 -0.3049205E+01  0.4998433E+06 -0.1518255E+01  0.5255388E+06 -0.2673289E+01  0.8825000E+04 -0.1844695E+01  0.1411417E+04 -0.4101014E+00
  0.8000000E+00  0.1658146E+04 -0.1929034E+01  0.7684509E+06 -0.3038686E+01  0.4548054E+06 -0.1508428E+01  0.5595274E+06 -0.2696781E+01  0.9797151E+04 -0.1868634E+01  0.1609698E+04 -0.4343279E+00
  0.8500000E+00  0.1909858E+04 -0.1851381E+01  0.8452189E+06 -0.3024032E+01  0.4105676E+06 -0.1495958E+01  0.5864362E+06 -0.2717454E+01  0.1077306E+05 -0.1900132E+01  0.1979999E+04 -0.5027899E+00
  0.8999999E+00  0.2166079E+04 -0.1809899E+01  0.9178428E+06 -0.3005068E+01  0.3673252E+06 -0.1481058E+01  0.6047996E+06 -0.2736052E+01  0.1180854E+05 -0.1919576E+01  0.2090994E+04 -0.5364056E+00
  0.9499999E+00  0.2433974E+04 -0.1740300E+01  0.9829681E+06 -0.2982101E+01  0.3253429E+06 -0.1463617E+01  0.6138956E+06 -0.2753802E+01  0.1292886E+05 -0.1944717E+01  0.2155592E+04 -0.6007978E+00
  0.9999999E+00  0.2685479E+04 -0.1661001E+01  0.1037936E+07 -0.2956092E+01  0.2848763E+06 -0.1443911E+01  0.6097430E+06 -0.2771222E+01  0.1415487E+05 -0.1960579E+01  0.2362136E+04 -0.6578333E+00
  0.1050000E+01  0.2962164E+04 -0.1591899E+01  0.1081075E+07 -0.2928255E+01  0.2463187E+06 -0.1422853E+01  0.5908957E+06 -0.2792597E+01  0.1533399E+05 -0.1973821E+01  0.2461547E+04 -0.6104281E+00
  0.1100000E+01  0.3224261E+04 -0.1506280E+01  0.1107408E+07 -0.2900289E+01  0.2101102E+06 -0.1401442E+01  0.5599984E+06 -0.2822135E+01  0.1665351E+05 -0.1983104E+01  0.2483154E+04 -0.6909668E+00
  0.1150000E+01  0.3480511E+04 -0.1424402E+01  0.1117092E+07 -0.2874618E+01  0.1766540E+06 -0.1380978E+01  0.5184804E+06 -0.2866615E+01  0.1798931E+05 -0.1986683E+01  0.2550403E+04 -0.8112252E+00
  0.1200000E+01  0.3772108E+04 -0.1354022E+01  0.1110795E+07 -0.2853345E+01  0.1463760E+06 -0.1362869E+01  0.4683778E+06 -0.2935243E+01  0.1925246E+05 -0.1979446E+01  0.2459289E+04 -0.8351555E+00
  0.1250000E+01  0.4046771E+04 -0.1271588E+01  0.1089292E+07 -0.2838575E+01  0.1195608E+06 -0.1348049E+01  0.4188264E+06 -0.3037152E+01  0.2083934E+05 -0.1964737E+01  0.2180872E+04 -0.1016715E+01
  0.1300000E+01  0.4516341E+04 -0.1155433E+01  0.1055070E+07 -0.2832039E+01  0.9612816E+05 -0.1336869E+01  0.3744851E+06  0.3105062E+01  0.2213343E+05 -0.1952680E+01  0.2717305E+04 -0.1034146E+01
  0.1350000E+01  0.4966584E+04 -0.1043667E+01  0.1012306E+07 -0.2834758E+01  0.7610410E+05 -0.1330745E+01  0.3438998E+06  0.2928835E+01  0.2339935E+05 -0.1917587E+01  0.2672764E+04 -0.1254846E+01
  0.1400000E+01  0.5425605E+04 -0.9080610E+00  0.9642843E+06 -0.2846916E+01  0.5930850E+05 -0.1331543E+01  0.3299887E+06  0.2743859E+01  0.2483946E+05 -0.1871648E+01  0.2425121E+04 -0.1410156E+01
  0.1450000E+01  0.5969666E+04 -0.7339077E+00  0.9129815E+06 -0.2868559E+01  0.4537414E+05 -0.1339961E+01  0.3290163E+06  0.2584080E+01  0.2582645E+05 -0.1816670E+01  0.2692757E+04 -0.1631924E+01
  0.1500000E+01  0.6661724E+04 -0.5341035E+00  0.8602664E+06 -0.2898945E+01  0.3406191E+05 -0.1361959E+01  0.3309798E+06  0.2465575E+01  0.2640713E+05 -0.1755810E+01  0.3047703E+04 -0.1503358E+01
  0.1550000E+01  0.7114299E+04 -0.3064598E+00  0.8077289E+06 -0.2937060E+01  0.2526146E+05 -0.1403435E+01  0.3267307E+06  0.2390387E+01  0.2642089E+05 -0.1665370E+01  0.3255667E+04 -0.1714160E+01
  0.1600000E+01  0.7438813E+04 -0.8065630E-01  0.7555248E+06 -0.2982587E+01  0.1868981E+05 -0.1466851E+01  0.3094030E+06  0.2343265E+01  0.2611764E+05 -0.1559721E+01  0.3052302E+04 -0.1984166E+01
  0.1650000E+01  0.8017961E+04  0.1517822E+00  0.7038686E+06 -0.3036237E+01  0.1392454E+05 -0.1546633E+01  0.2783432E+06  0.2307765E+01  0.2491732E+05 -0.1465840E+01  0.3454543E+04 -0.2307027E+01
  0.1700000E+01  0.8965916E+04  0.3833502E+00  0.6530286E+06 -0.3099598E+01  0.1059269E+05 -0.1623380E+01  0.2353710E+06  0.2261202E+01  0.2295016E+05 -0.1395042E+01  0.3489471E+04 -0.2321693E+01
  0.1750000E+01  0.9520104E+04  0.5966989E+00  0.6048474E+06  0.3109150E+01  0.8209292E+04 -0.1669029E+01  0.1866091E+06  0.2189945E+01  0.2070726E+05 -0.1319360E+01  0.3996594E+04 -0.2466128E+01
  0.1800000E+01  0.1022495E+05  0.8128036E+00  0.5604303E+06  0.3022869E+01  0.6505346E+04 -0.1656382E+01  0.1361170E+06  0.2064495E+01  0.1837456E+05 -0.1225455E+01  0.5478842E+04 -0.2609607E+01
  0.1850000E+01  0.1158929E+05  0.9977824E+00  0.5214461E+06  0.2924906E+01  0.5219616E+04 -0.1557687E+01  0.8914210E+05  0.1826247E+01  0.1611136E+05 -0.1109005E+01  0.7209417E+04 -0.2678250E+01
  0.1900000E+01  0.1381595E+05  0.1160379E+01  0.4889878E+06  0.2817250E+01  0.4318025E+04 -0.1339676E+01  0.5440365E+05  0.1280812E+01  0.1410325E+05 -0.9568581E+00  0.9053379E+04 -0.2667209E+01
  0.1950000E+01  0.1769311E+05  0.1314740E+01  0.4628727E+06  0.2705002E+01  0.4076494E+04 -0.9797386E+00  0.5107248E+05  0.3116187E+00  0.1267990E+05 -0.7242782E+00  0.9696913E+04 -0.2577717E+01
  0.2000000E+01  0.2591304E+05  0.1487125E+01  0.4422069E+06  0.2592818E+01  0.5159488E+04 -0.5758513E+00  0.7851091E+05 -0.2893786E+00  0.1339766E+05 -0.2160294E+00  0.8973446E+04 -0.2463746E+01
