VARIABLES="w (rad/s)"
"abs(F   1   1)" "angle(F   1   1)"
"abs(F   1   2)" "angle(F   1   2)"
"abs(F   1   3)" "angle(F   1   3)"
"abs(F   1   4)" "angle(F   1   4)"
"abs(F   1   5)" "angle(F   1   5)"
"abs(F   1   6)" "angle(F   1   6)"
Zone t="FKforce - beta =   0.000",I=    40,F=POINT
  0.5000000E-01  0.1873143E+04 -0.3141472E+01  0.8388672E+00 -0.1570853E+01  0.9791265E+06 -0.1570796E+01  0.1039279E+04 -0.1570796E+01  0.6670365E+03 -0.6054641E+00  0.1685410E+04  0.2224640E+01
  0.1000000E+00  0.7470332E+04 -0.3141527E+01  0.1611330E+00  0.1569186E+01  0.9735253E+06 -0.1570796E+01  0.4135451E+04 -0.1570796E+01  0.2238065E+04 -0.2312289E+00  0.4288551E+04  0.2826257E+01
  0.1500000E+00  0.1672510E+05 -0.3141522E+01  0.3027358E-01  0.1567772E+01  0.9642537E+06 -0.1570796E+01  0.9215686E+04 -0.1570796E+01  0.4899230E+04 -0.1500927E+00  0.9181001E+04  0.2997659E+01
  0.2000000E+00  0.2952758E+05 -0.3141503E+01  0.3740234E+00  0.1570796E+01  0.9514055E+06 -0.1570796E+01  0.1616467E+05 -0.1570796E+01  0.8532287E+04 -0.1216441E+00  0.1599035E+05  0.3060366E+01
  0.2500000E+00  0.4572581E+05 -0.3141472E+01  0.1178711E+01  0.1571418E+01  0.9351106E+06 -0.1570796E+01  0.2482266E+05 -0.1570796E+01  0.1302510E+05 -0.1089580E+00  0.2450866E+05  0.3089656E+01
  0.3000000E+00  0.6512753E+05 -0.3141437E+01  0.1791992E+01  0.1570490E+01  0.9155331E+06 -0.1570796E+01  0.3499273E+05 -0.1570796E+01  0.1824160E+05 -0.1027144E+00  0.3452814E+05  0.3105696E+01
  0.3500000E+00  0.8750265E+05 -0.3141398E+01  0.4135743E+01  0.1571151E+01  0.8928682E+06 -0.1570796E+01  0.4644377E+05 -0.1570796E+01  0.2401923E+05 -0.9965790E-01  0.4581697E+05  0.3115429E+01
  0.4000000E+00  0.1125858E+06 -0.3141350E+01  0.6107422E+01  0.1570936E+01  0.8673398E+06 -0.1570796E+01  0.5891679E+05 -0.1570796E+01  0.3017041E+05 -0.9847811E-01  0.5811837E+05  0.3121810E+01
  0.4500000E+00  0.1400797E+06 -0.3141301E+01  0.9443359E+01  0.1571107E+01  0.8391973E+06 -0.1570796E+01  0.7213367E+05 -0.1570796E+01  0.3648476E+05 -0.9857734E-01  0.7115526E+05  0.3126255E+01
  0.5000000E+00  0.1696588E+06 -0.3141244E+01  0.1394336E+02  0.1570446E+01  0.8087129E+06 -0.1570796E+01  0.8579805E+05 -0.1570796E+01  0.4273177E+05 -0.9969810E-01  0.8463721E+05  0.3129508E+01
  0.5500000E+00  0.2009728E+06 -0.3141183E+01  0.1899805E+02  0.1570970E+01  0.7761751E+06 -0.1570796E+01  0.9960937E+05 -0.1570796E+01  0.4866555E+05 -0.1017256E+00  0.9826602E+05  0.3131988E+01
  0.6000000E+00  0.2336517E+06 -0.3141116E+01  0.2611230E+02  0.1570656E+01  0.7418881E+06 -0.1570796E+01  0.1132677E+06 -0.1570796E+01  0.5402867E+05 -0.1046880E+00  0.1117434E+06  0.3133948E+01
  0.6500000E+00  0.2673091E+06 -0.3141042E+01  0.3455273E+02  0.1570895E+01  0.7061642E+06 -0.1570796E+01  0.1264801E+06 -0.1570796E+01  0.5855776E+05 -0.1086919E+00  0.1247788E+06  0.3135555E+01
  0.7000000E+00  0.3015478E+06 -0.3140966E+01  0.4368848E+02  0.1570858E+01  0.6693219E+06 -0.1570796E+01  0.1389683E+06 -0.1570796E+01  0.6199086E+05 -0.1139528E+00  0.1370953E+06  0.3136912E+01
  0.7500001E+00  0.3359637E+06 -0.3140885E+01  0.5455859E+02  0.1570792E+01  0.6316804E+06 -0.1570796E+01  0.1504745E+06 -0.1570796E+01  0.6407311E+05 -0.1208120E+00  0.1484366E+06  0.3138090E+01
  0.8000000E+00  0.3701510E+06 -0.3140803E+01  0.6589453E+02  0.1570700E+01  0.5935552E+06 -0.1570796E+01  0.1607710E+06 -0.1570796E+01  0.6456521E+05 -0.1298297E+00  0.1585727E+06  0.3139141E+01
  0.8500000E+00  0.4037068E+06 -0.3140717E+01  0.7868164E+02  0.1570747E+01  0.5552541E+06 -0.1570796E+01  0.1696589E+06 -0.1570796E+01  0.6325177E+05 -0.1419295E+00  0.1673056E+06  0.3140102E+01
  0.9000000E+00  0.4362353E+06 -0.3140630E+01  0.9204199E+02  0.1570727E+01  0.5170732E+06 -0.1570796E+01  0.1769773E+06 -0.1570796E+01  0.5995140E+05 -0.1586870E+00  0.1744720E+06  0.3140997E+01
  0.9500000E+00  0.4673527E+06 -0.3140542E+01  0.1058770E+03  0.1570856E+01  0.4792937E+06 -0.1570796E+01  0.1826046E+06 -0.1570796E+01  0.5452705E+05 -0.1830648E+00  0.1799475E+06 -0.3141341E+01
  0.1000000E+01  0.4966907E+06 -0.3140456E+01  0.1200410E+03  0.1570890E+01  0.4421781E+06 -0.1570796E+01  0.1864604E+06 -0.1570796E+01  0.4690514E+05 -0.2212579E+00  0.1836485E+06 -0.3140522E+01
  0.1050000E+01  0.5239010E+06 -0.3140373E+01  0.1338916E+03  0.1570825E+01  0.4059673E+06 -0.1570796E+01  0.1885058E+06 -0.1570796E+01  0.3711449E+05 -0.2886243E+00  0.1855330E+06 -0.3139729E+01
  0.1100000E+01  0.5486584E+06 -0.3140294E+01  0.1470820E+03  0.1570750E+01  0.3708786E+06 -0.1570796E+01  0.1887433E+06 -0.1570796E+01  0.2544219E+05 -0.4352464E+00  0.1856002E+06 -0.3138953E+01
  0.1150000E+01  0.5706641E+06 -0.3140222E+01  0.1599824E+03  0.1570809E+01  0.3371036E+06 -0.1570796E+01  0.1872150E+06 -0.1570796E+01  0.1359829E+05 -0.9145761E+00  0.1838896E+06 -0.3138192E+01
  0.1200000E+01  0.5896484E+06 -0.3140160E+01  0.1714941E+03  0.1570785E+01  0.3048066E+06 -0.1570796E+01  0.1839998E+06 -0.1570796E+01  0.1373224E+05 -0.2248750E+01  0.1804761E+06 -0.3137450E+01
  0.1250000E+01  0.6053730E+06 -0.3140110E+01  0.1815586E+03  0.1570759E+01  0.2741242E+06 -0.1570796E+01  0.1792104E+06 -0.1570796E+01  0.2939804E+05 -0.2776942E+01  0.1754716E+06 -0.3136732E+01
  0.1300000E+01  0.6176339E+06 -0.3140076E+01  0.1897920E+03  0.1570760E+01  0.2451650E+06 -0.1570796E+01  0.1729883E+06 -0.1570796E+01  0.4905789E+05 -0.2933541E+01  0.1690145E+06 -0.3136055E+01
  0.1350000E+01  0.6262616E+06 -0.3140063E+01  0.1963887E+03  0.1570771E+01  0.2180092E+06 -0.1570796E+01  0.1654986E+06 -0.1570796E+01  0.7055618E+05 -0.3004581E+01  0.1612700E+06 -0.3135435E+01
  0.1400000E+01  0.6311229E+06 -0.3140074E+01  0.2005830E+03  0.1570860E+01  0.1927108E+06 -0.1570796E+01  0.1569248E+06 -0.1570796E+01  0.9320286E+05 -0.3044976E+01  0.1524221E+06 -0.3134905E+01
  0.1450000E+01  0.6321230E+06 -0.3140117E+01  0.2029038E+03  0.1570816E+01  0.1692968E+06 -0.1570796E+01  0.1474633E+06 -0.1570796E+01  0.1164740E+06 -0.3071199E+01  0.1426695E+06 -0.3134509E+01
  0.1500000E+01  0.6292046E+06 -0.3140198E+01  0.2026816E+03  0.1570753E+01  0.1477707E+06 -0.1570796E+01  0.1373171E+06 -0.1570796E+01  0.1398555E+06 -0.3089811E+01  0.1322179E+06 -0.3134310E+01
  0.1550000E+01  0.6223486E+06 -0.3140326E+01  0.2001475E+03  0.1570762E+01  0.1281128E+06 -0.1570796E+01  0.1266903E+06 -0.1570796E+01  0.1628184E+06 -0.3103935E+01  0.1212760E+06 -0.3134398E+01
  0.1600000E+01  0.6115752E+06 -0.3140510E+01  0.1956909E+03  0.1570856E+01  0.1102837E+06 -0.1570796E+01  0.1157833E+06 -0.1570796E+01  0.1848183E+06 -0.3115255E+01  0.1100515E+06 -0.3134897E+01
  0.1650000E+01  0.5969424E+06 -0.3140762E+01  0.1889805E+03  0.1570740E+01  0.9422635E+05 -0.1570796E+01  0.1047871E+06 -0.1570796E+01  0.2053045E+06 -0.3124772E+01  0.9874215E+05 -0.3135995E+01
  0.1700000E+01  0.5785471E+06 -0.3141098E+01  0.1805071E+03  0.1570818E+01  0.7986784E+05 -0.1570796E+01  0.9387952E+05 -0.1570796E+01  0.2237315E+06 -0.3133128E+01  0.8753577E+05 -0.3137949E+01
  0.1750000E+01  0.5565243E+06 -0.3141537E+01  0.1702236E+03  0.1570819E+01  0.6712311E+05 -0.1570796E+01  0.8322188E+05 -0.1570796E+01  0.2395732E+06 -0.3140774E+01  0.7660559E+05 -0.3141141E+01
  0.1800000E+01  0.5310459E+06  0.3141084E+01  0.1586865E+03  0.1570747E+01  0.5589696E+05 -0.1570796E+01  0.7295577E+05 -0.1570796E+01  0.2523359E+06  0.3135135E+01  0.6610450E+05  0.3137054E+01
  0.1850000E+01  0.5023211E+06  0.3140363E+01  0.1457880E+03  0.1570823E+01  0.4608664E+05 -0.1570796E+01  0.6320114E+05 -0.1570796E+01  0.2615737E+06  0.3127946E+01  0.5616734E+05  0.3129424E+01
  0.1900000E+01  0.4705956E+06  0.3139447E+01  0.1322534E+03  0.1570752E+01  0.3758456E+05 -0.1570796E+01  0.5405567E+05 -0.1570796E+01  0.2669008E+06  0.3120583E+01  0.4690847E+05  0.3117863E+01
  0.1950000E+01  0.4361492E+06  0.3138280E+01  0.1180771E+03  0.1570813E+01  0.3028032E+05 -0.1570796E+01  0.4559385E+05 -0.1570796E+01  0.2680059E+06  0.3112777E+01  0.3842119E+05  0.3100337E+01
  0.2000000E+01  0.3992962E+06  0.3136789E+01  0.1037896E+03  0.1570787E+01  0.2406296E+05 -0.1570796E+01  0.3786742E+05 -0.1570796E+01  0.2646628E+06  0.3104220E+01  0.3078089E+05  0.3073552E+01
Zone t="FKforce - beta =  90.000",I=    40,F=POINT
  0.5000000E-01  0.3978988E+00 -0.5414775E+00  0.1873142E+04 -0.3141373E+01  0.9791266E+06 -0.1570796E+01  0.1175979E+04 -0.2059064E+01  0.3793213E+03 -0.1575336E+01  0.1337682E+04  0.1566970E+01
  0.1000000E+00  0.1480200E+01 -0.4127481E+00  0.7470295E+04  0.3141087E+01  0.9735252E+06 -0.1570792E+01  0.4661716E+04 -0.2059986E+01  0.5128034E+03 -0.1584556E+01  0.1329781E+04  0.1555455E+01
  0.1500000E+00  0.3303658E+01 -0.4169487E+00  0.1672492E+05  0.3140319E+01  0.9642540E+06 -0.1570775E+01  0.1032920E+05 -0.2061641E+01  0.7326769E+03 -0.1593308E+01  0.1317743E+04  0.1536165E+01
  0.2000000E+00  0.6101284E+01 -0.5210396E+00  0.2952701E+05  0.3139344E+01  0.9514055E+06 -0.1570728E+01  0.1797360E+05 -0.2063832E+01  0.1035626E+04 -0.1600562E+01  0.1299942E+04  0.1508902E+01
  0.2500000E+00  0.1017102E+02 -0.6484219E+00  0.4572464E+05  0.3138094E+01  0.9351103E+06 -0.1570629E+01  0.2731434E+05 -0.2066577E+01  0.1416818E+04 -0.1606861E+01  0.1277699E+04  0.1473435E+01
  0.3000000E+00  0.1575019E+02 -0.7635078E+00  0.6512546E+05  0.3136598E+01  0.9155321E+06 -0.1570450E+01  0.3800730E+05 -0.2069808E+01  0.1871911E+04 -0.1612757E+01  0.1250346E+04  0.1429353E+01
  0.3500000E+00  0.2395675E+02 -0.8951395E+00  0.8749962E+05  0.3134878E+01  0.8928661E+06 -0.1570155E+01  0.4965336E+05 -0.2073458E+01  0.2392940E+04 -0.1618655E+01  0.1219490E+04  0.1376413E+01
  0.4000000E+00  0.3496412E+02 -0.1004076E+01  0.1125820E+06  0.3132946E+01  0.8673368E+06 -0.1569701E+01  0.6181335E+05 -0.2077415E+01  0.2972664E+04 -0.1624778E+01  0.1184542E+04  0.1313934E+01
  0.4500000E+00  0.5016434E+02 -0.1104232E+01  0.1400762E+06  0.3130825E+01  0.8391935E+06 -0.1569042E+01  0.7402059E+05 -0.2081542E+01  0.3603054E+04 -0.1631236E+01  0.1146582E+04  0.1241469E+01
  0.5000000E+00  0.7004272E+02 -0.1188424E+01  0.1696572E+06  0.3128524E+01  0.8087074E+06 -0.1568122E+01  0.8579337E+05 -0.2085678E+01  0.4275283E+04 -0.1638096E+01  0.1106845E+04  0.1158603E+01
  0.5500000E+00  0.9600496E+02 -0.1261563E+01  0.2009767E+06  0.3126087E+01  0.7761687E+06 -0.1566879E+01  0.9665361E+05 -0.2089600E+01  0.4980725E+04 -0.1645364E+01  0.1064768E+04  0.1064361E+01
  0.6000000E+00  0.1282563E+03 -0.1322724E+01  0.2336658E+06  0.3123525E+01  0.7418811E+06 -0.1565245E+01  0.1061387E+06 -0.2093020E+01  0.5709402E+04 -0.1653068E+01  0.1022552E+04  0.9583798E+00
  0.6500000E+00  0.1679922E+03 -0.1375325E+01  0.2673404E+06  0.3120878E+01  0.7061591E+06 -0.1563145E+01  0.1138162E+06 -0.2095565E+01  0.6452511E+04 -0.1661198E+01  0.9801942E+03  0.8399398E+00
  0.7000000E+00  0.2154520E+03 -0.1420629E+01  0.3016052E+06  0.3118166E+01  0.6693213E+06 -0.1560497E+01  0.1192975E+06 -0.2096723E+01  0.7200777E+04 -0.1669735E+01  0.9390438E+03  0.7085872E+00
  0.7500001E+00  0.2712982E+03 -0.1460329E+01  0.3360594E+06  0.3115420E+01  0.6316881E+06 -0.1557210E+01  0.1222531E+06 -0.2095766E+01  0.7945647E+04 -0.1678666E+01  0.8992318E+03  0.5630955E+00
  0.8000000E+00  0.3362609E+03 -0.1495752E+01  0.3702990E+06  0.3112667E+01  0.5935776E+06 -0.1553187E+01  0.1224215E+06 -0.2091663E+01  0.8678214E+04 -0.1687975E+01  0.8620474E+03  0.4032520E+00
  0.8500000E+00  0.4098514E+03 -0.1527579E+01  0.4039248E+06  0.3109934E+01  0.5552992E+06 -0.1548321E+01  0.1196228E+06 -0.2082846E+01  0.9391338E+04 -0.1697651E+01  0.8279451E+03  0.2264848E+00
  0.9000000E+00  0.4928475E+03 -0.1556745E+01  0.4365433E+06  0.3107250E+01  0.5171528E+06 -0.1542497E+01  0.1137733E+06 -0.2066863E+01  0.1007705E+05 -0.1707672E+01  0.7979619E+03  0.3117332E-01
  0.9500000E+00  0.5847086E+03 -0.1583672E+01  0.4677733E+06  0.3104639E+01  0.4794216E+06 -0.1535591E+01  0.1049065E+06 -0.2039605E+01  0.1072952E+05 -0.1718033E+01  0.7748654E+03 -0.1862071E+00
  0.1000000E+01  0.6850677E+03 -0.1608908E+01  0.4972487E+06  0.3102126E+01  0.4423717E+06 -0.1527468E+01  0.9321173E+05 -0.1993684E+01  0.1134256E+05 -0.1728725E+01  0.7631923E+03 -0.4283729E+00
  0.1050000E+01  0.7934872E+03 -0.1632750E+01  0.5246232E+06  0.3099734E+01  0.4062477E+06 -0.1517981E+01  0.7912766E+05 -0.1914690E+01  0.1191098E+05 -0.1739763E+01  0.7704734E+03 -0.6948126E+00
  0.1100000E+01  0.9090496E+03 -0.1655620E+01  0.5495727E+06  0.3097482E+01  0.3712696E+06 -0.1506971E+01  0.6360616E+05 -0.1771784E+01  0.1243046E+05 -0.1751155E+01  0.8067260E+03 -0.9787420E+00
  0.1150000E+01  0.1031026E+04 -0.1677610E+01  0.5717999E+06  0.3095390E+01  0.3376326E+06 -0.1494265E+01  0.4892666E+05 -0.1497263E+01  0.1289736E+05 -0.1762919E+01  0.8836398E+03 -0.1264952E+01
  0.1200000E+01  0.1157759E+04 -0.1699063E+01  0.5910342E+06  0.3093473E+01  0.3055039E+06 -0.1479673E+01  0.4071700E+05 -0.9988714E+00  0.1330840E+05 -0.1775097E+01  0.1010846E+04 -0.1535136E+01
  0.1250000E+01  0.1288423E+04 -0.1720095E+01  0.6070372E+06  0.3091743E+01  0.2750224E+06 -0.1462991E+01  0.4646727E+05 -0.4215264E+00  0.1366093E+05 -0.1787733E+01  0.1192945E+04 -0.1775639E+01
  0.1300000E+01  0.1420900E+04 -0.1740928E+01  0.6196023E+06  0.3090209E+01  0.2462981E+06 -0.1443991E+01  0.6447468E+05 -0.5412326E-01  0.1395334E+05 -0.1800880E+01  0.1432415E+04 -0.1981566E+01
  0.1350000E+01  0.1553747E+04 -0.1761693E+01  0.6285589E+06  0.3088877E+01  0.2194123E+06 -0.1422426E+01  0.8842916E+05  0.1357803E+00  0.1418347E+05 -0.1814621E+01  0.1728548E+04 -0.2154697E+01
  0.1400000E+01  0.1684888E+04 -0.1782567E+01  0.6337694E+06  0.3087751E+01  0.1944182E+06 -0.1398025E+01  0.1149025E+06  0.2372867E+00  0.1435029E+05 -0.1829041E+01  0.2080944E+04 -0.2300285E+01
  0.1450000E+01  0.1812515E+04 -0.1803683E+01  0.6351344E+06  0.3086829E+01  0.1713418E+06 -0.1370487E+01  0.1422400E+06  0.2946296E+00  0.1445273E+05 -0.1844249E+01  0.2488097E+04 -0.2423281E+01
  0.1500000E+01  0.1934435E+04 -0.1825218E+01  0.6325919E+06  0.3086109E+01  0.1501838E+06 -0.1339484E+01  0.1694131E+06  0.3279111E+00  0.1449006E+05 -0.1860378E+01  0.2948203E+04 -0.2528143E+01
  0.1550000E+01  0.2048519E+04 -0.1847349E+01  0.6261168E+06  0.3085580E+01  0.1309208E+06 -0.1304654E+01  0.1956296E+06  0.3470216E+00  0.1446159E+05 -0.1877570E+01  0.3459091E+04 -0.2618658E+01
  0.1600000E+01  0.2152441E+04 -0.1870286E+01  0.6157219E+06  0.3085232E+01  0.1135085E+06 -0.1265601E+01  0.2202047E+06  0.3572967E+00  0.1436691E+05 -0.1896009E+01  0.4017935E+04 -0.2697684E+01
  0.1650000E+01  0.2244282E+04 -0.1894230E+01  0.6014578E+06  0.3085049E+01  0.9788353E+05 -0.1221893E+01  0.2425209E+06  0.3618653E+00  0.1420591E+05 -0.1915897E+01  0.4620424E+04 -0.2767410E+01
  0.1700000E+01  0.2321672E+04 -0.1919475E+01  0.5834139E+06  0.3085011E+01  0.8396628E+05 -0.1173067E+01  0.2620154E+06  0.3626931E+00  0.1397835E+05 -0.1937479E+01  0.5261593E+04 -0.2829609E+01
  0.1750000E+01  0.2382830E+04 -0.1946297E+01  0.5617159E+06  0.3085095E+01  0.7166368E+05 -0.1118627E+01  0.2781780E+06  0.3611039E+00  0.1368450E+05 -0.1961051E+01  0.5935328E+04 -0.2885694E+01
  0.1800000E+01  0.2425827E+04 -0.1975092E+01  0.5365281E+06  0.3085272E+01  0.6087207E+05 -0.1058060E+01  0.2905607E+06  0.3580456E+00  0.1332499E+05 -0.1986959E+01  0.6634247E+04 -0.2936752E+01
  0.1850000E+01  0.2449135E+04 -0.2006270E+01  0.5080508E+06  0.3085505E+01  0.5147975E+05 -0.9908493E+00  0.2987797E+06  0.3542461E+00  0.1290091E+05 -0.2015632E+01  0.7350048E+04 -0.2983718E+01
  0.1900000E+01  0.2451250E+04 -0.2040443E+01  0.4765202E+06  0.3085754E+01  0.4336980E+05 -0.9165018E+00  0.3025274E+06  0.3503119E+00  0.1241395E+05 -0.2047599E+01  0.8072333E+04 -0.3027340E+01
  0.1950000E+01  0.2431422E+04 -0.2078278E+01  0.4422101E+06  0.3085965E+01  0.3642241E+05 -0.8345862E+00  0.3015777E+06  0.3467931E+00  0.1186669E+05 -0.2083532E+01  0.8790641E+04 -0.3068262E+01
  0.2000000E+01  0.2389115E+04 -0.2120665E+01  0.4054270E+06  0.3086069E+01  0.3051719E+05 -0.7447854E+00  0.2957948E+06  0.3442514E+00  0.1126291E+05 -0.2124273E+01  0.9492701E+04 -0.3107051E+01
