VARIABLES="w (rad/s)"
"abs(F   1   1)" "angle(F   1   1)"
"abs(F   1   2)" "angle(F   1   2)"
"abs(F   1   3)" "angle(F   1   3)"
"abs(F   1   4)" "angle(F   1   4)"
"abs(F   1   5)" "angle(F   1   5)"
"abs(F   1   6)" "angle(F   1   6)"
Zone t="FKforce - beta =   0.000",I=    40,F=POINT
  0.5000000E-01  0.1873143E+04 -0.3141472E+01  0.8388672E+00 -0.1570853E+01  0.9791265E+06 -0.1570796E+01  0.1039279E+04 -0.1570796E+01  0.6670365E+03 -0.6054641E+00  0.1685410E+04  0.2224640E+01
  0.9999999E-01  0.7470328E+04 -0.3141527E+01  0.1611328E+00  0.1570938E+01  0.9735253E+06 -0.1570796E+01  0.4135451E+04 -0.1570796E+01  0.2238035E+04 -0.2311748E+00  0.4288544E+04  0.2826257E+01
  0.1500000E+00  0.1672510E+05 -0.3141522E+01  0.3027350E-01  0.1572812E+01  0.9642537E+06 -0.1570796E+01  0.9215686E+04 -0.1570796E+01  0.4899234E+04 -0.1500926E+00  0.9181001E+04  0.2997659E+01
  0.2000000E+00  0.2952758E+05 -0.3141503E+01  0.3740234E+00  0.1570796E+01  0.9514055E+06 -0.1570796E+01  0.1616467E+05 -0.1570796E+01  0.8532287E+04 -0.1216441E+00  0.1599035E+05  0.3060366E+01
  0.2500000E+00  0.4572580E+05 -0.3141472E+01  0.1178711E+01  0.1571651E+01  0.9351106E+06 -0.1570796E+01  0.2482266E+05 -0.1570796E+01  0.1302511E+05 -0.1089676E+00  0.2450864E+05  0.3089661E+01
  0.3000000E+00  0.6512753E+05 -0.3141437E+01  0.1797852E+01  0.1570966E+01  0.9155331E+06 -0.1570796E+01  0.3499274E+05 -0.1570796E+01  0.1824160E+05 -0.1027144E+00  0.3452815E+05  0.3105698E+01
  0.3500000E+00  0.8750265E+05 -0.3141398E+01  0.4135743E+01  0.1571151E+01  0.8928682E+06 -0.1570796E+01  0.4644377E+05 -0.1570796E+01  0.2401923E+05 -0.9965790E-01  0.4581697E+05  0.3115429E+01
  0.4000000E+00  0.1125858E+06 -0.3141350E+01  0.6107422E+01  0.1570936E+01  0.8673398E+06 -0.1570796E+01  0.5891679E+05 -0.1570796E+01  0.3017041E+05 -0.9847811E-01  0.5811837E+05  0.3121810E+01
  0.4500000E+00  0.1400796E+06 -0.3141301E+01  0.9443360E+01  0.1571313E+01  0.8391974E+06 -0.1570796E+01  0.7213344E+05 -0.1570796E+01  0.3648479E+05 -0.9858244E-01  0.7115528E+05  0.3126253E+01
  0.5000000E+00  0.1696588E+06 -0.3141244E+01  0.1394336E+02  0.1570446E+01  0.8087129E+06 -0.1570796E+01  0.8579805E+05 -0.1570796E+01  0.4273177E+05 -0.9969810E-01  0.8463721E+05  0.3129508E+01
  0.5500000E+00  0.2009728E+06 -0.3141182E+01  0.1895117E+02  0.1570977E+01  0.7761753E+06 -0.1570796E+01  0.9960954E+05 -0.1570796E+01  0.4866558E+05 -0.1017290E+00  0.9826596E+05  0.3131987E+01
  0.6000000E+00  0.2336517E+06 -0.3141116E+01  0.2611230E+02  0.1570656E+01  0.7418881E+06 -0.1570796E+01  0.1132677E+06 -0.1570796E+01  0.5402867E+05 -0.1046880E+00  0.1117434E+06  0.3133948E+01
  0.6500000E+00  0.2673091E+06 -0.3141042E+01  0.3455273E+02  0.1570895E+01  0.7061642E+06 -0.1570796E+01  0.1264801E+06 -0.1570796E+01  0.5855776E+05 -0.1086919E+00  0.1247788E+06  0.3135555E+01
  0.7000000E+00  0.3015478E+06 -0.3140966E+01  0.4360645E+02  0.1570847E+01  0.6693221E+06 -0.1570796E+01  0.1389683E+06 -0.1570796E+01  0.6199082E+05 -0.1139524E+00  0.1370953E+06  0.3136913E+01
  0.7500000E+00  0.3359637E+06 -0.3140886E+01  0.5439258E+02  0.1570707E+01  0.6316804E+06 -0.1570796E+01  0.1504743E+06 -0.1570796E+01  0.6407303E+05 -0.1208112E+00  0.1484365E+06  0.3138089E+01
  0.8000000E+00  0.3701509E+06 -0.3140803E+01  0.6578125E+02  0.1570767E+01  0.5935552E+06 -0.1570796E+01  0.1607708E+06 -0.1570796E+01  0.6456523E+05 -0.1298303E+00  0.1585727E+06  0.3139141E+01
  0.8500000E+00  0.4037068E+06 -0.3140717E+01  0.7865820E+02  0.1570809E+01  0.5552541E+06 -0.1570796E+01  0.1696590E+06 -0.1570796E+01  0.6325176E+05 -0.1419298E+00  0.1673055E+06  0.3140102E+01
  0.9000000E+00  0.4362352E+06 -0.3140630E+01  0.9203809E+02  0.1570765E+01  0.5170732E+06 -0.1570796E+01  0.1769773E+06 -0.1570796E+01  0.5995135E+05 -0.1586873E+00  0.1744721E+06  0.3140997E+01
  0.9500000E+00  0.4673527E+06 -0.3140542E+01  0.1057314E+03  0.1570819E+01  0.4792937E+06 -0.1570796E+01  0.1826047E+06 -0.1570796E+01  0.5452717E+05 -0.1830661E+00  0.1799475E+06 -0.3141340E+01
  0.9999999E+00  0.4966907E+06 -0.3140456E+01  0.1198691E+03  0.1570800E+01  0.4421781E+06 -0.1570796E+01  0.1864604E+06 -0.1570796E+01  0.4690513E+05 -0.2212569E+00  0.1836484E+06 -0.3140523E+01
  0.1050000E+01  0.5239010E+06 -0.3140373E+01  0.1338916E+03  0.1570825E+01  0.4059673E+06 -0.1570796E+01  0.1885058E+06 -0.1570796E+01  0.3711449E+05 -0.2886243E+00  0.1855330E+06 -0.3139729E+01
  0.1100000E+01  0.5486583E+06 -0.3140294E+01  0.1471572E+03  0.1570770E+01  0.3708786E+06 -0.1570796E+01  0.1887432E+06 -0.1570796E+01  0.2544219E+05 -0.4352470E+00  0.1856003E+06 -0.3138952E+01
  0.1150000E+01  0.5706641E+06 -0.3140222E+01  0.1599824E+03  0.1570809E+01  0.3371036E+06 -0.1570796E+01  0.1872150E+06 -0.1570796E+01  0.1359829E+05 -0.9145761E+00  0.1838896E+06 -0.3138192E+01
  0.1200000E+01  0.5896483E+06 -0.3140160E+01  0.1715762E+03  0.1570756E+01  0.3048066E+06 -0.1570796E+01  0.1839998E+06 -0.1570796E+01  0.1373228E+05 -0.2248753E+01  0.1804762E+06 -0.3137450E+01
  0.1250000E+01  0.6053730E+06 -0.3140110E+01  0.1815586E+03  0.1570759E+01  0.2741242E+06 -0.1570796E+01  0.1792104E+06 -0.1570796E+01  0.2939804E+05 -0.2776942E+01  0.1754716E+06 -0.3136732E+01
  0.1300000E+01  0.6176338E+06 -0.3140076E+01  0.1898232E+03  0.1570745E+01  0.2451650E+06 -0.1570796E+01  0.1729883E+06 -0.1570796E+01  0.4905784E+05 -0.2933541E+01  0.1690145E+06 -0.3136054E+01
  0.1350000E+01  0.6262616E+06 -0.3140063E+01  0.1963467E+03  0.1570722E+01  0.2180094E+06 -0.1570796E+01  0.1654985E+06 -0.1570796E+01  0.7055615E+05 -0.3004580E+01  0.1612700E+06 -0.3135435E+01
  0.1400000E+01  0.6311228E+06 -0.3140074E+01  0.2005244E+03  0.1570830E+01  0.1927109E+06 -0.1570796E+01  0.1569249E+06 -0.1570796E+01  0.9320283E+05 -0.3044976E+01  0.1524221E+06 -0.3134905E+01
  0.1450000E+01  0.6321230E+06 -0.3140117E+01  0.2027915E+03  0.1570835E+01  0.1692969E+06 -0.1570796E+01  0.1474634E+06 -0.1570796E+01  0.1164739E+06 -0.3071199E+01  0.1426696E+06 -0.3134509E+01
  0.1500000E+01  0.6292046E+06 -0.3140198E+01  0.2026816E+03  0.1570753E+01  0.1477707E+06 -0.1570796E+01  0.1373171E+06 -0.1570796E+01  0.1398555E+06 -0.3089811E+01  0.1322179E+06 -0.3134310E+01
  0.1550000E+01  0.6223487E+06 -0.3140326E+01  0.2001167E+03  0.1570738E+01  0.1281129E+06 -0.1570796E+01  0.1266904E+06 -0.1570796E+01  0.1628184E+06 -0.3103935E+01  0.1212760E+06 -0.3134397E+01
  0.1600000E+01  0.6115752E+06 -0.3140510E+01  0.1956670E+03  0.1570806E+01  0.1102838E+06 -0.1570796E+01  0.1157833E+06 -0.1570796E+01  0.1848182E+06 -0.3115255E+01  0.1100515E+06 -0.3134898E+01
  0.1650000E+01  0.5969424E+06 -0.3140762E+01  0.1889263E+03  0.1570724E+01  0.9422635E+05 -0.1570796E+01  0.1047871E+06 -0.1570796E+01  0.2053044E+06 -0.3124772E+01  0.9874222E+05 -0.3135996E+01
  0.1700000E+01  0.5785471E+06 -0.3141098E+01  0.1805037E+03  0.1570742E+01  0.7986792E+05 -0.1570796E+01  0.9387958E+05 -0.1570796E+01  0.2237315E+06 -0.3133128E+01  0.8753596E+05 -0.3137949E+01
  0.1750000E+01  0.5565244E+06 -0.3141537E+01  0.1701743E+03  0.1570894E+01  0.6712316E+05 -0.1570796E+01  0.8322193E+05 -0.1570796E+01  0.2395732E+06 -0.3140774E+01  0.7660537E+05 -0.3141141E+01
  0.1800000E+01  0.5310459E+06  0.3141084E+01  0.1587148E+03  0.1570655E+01  0.5589698E+05 -0.1570796E+01  0.7295576E+05 -0.1570796E+01  0.2523359E+06  0.3135135E+01  0.6610449E+05  0.3137054E+01
  0.1850000E+01  0.5023212E+06  0.3140363E+01  0.1457636E+03  0.1570810E+01  0.4608665E+05 -0.1570796E+01  0.6320112E+05 -0.1570796E+01  0.2615737E+06  0.3127946E+01  0.5616734E+05  0.3129424E+01
  0.1900000E+01  0.4705956E+06  0.3139447E+01  0.1322179E+03  0.1570730E+01  0.3758458E+05 -0.1570796E+01  0.5405571E+05 -0.1570796E+01  0.2669008E+06  0.3120583E+01  0.4690846E+05  0.3117863E+01
  0.1950000E+01  0.4361494E+06  0.3138280E+01  0.1180868E+03  0.1570714E+01  0.3028034E+05 -0.1570796E+01  0.4559383E+05 -0.1570796E+01  0.2680058E+06  0.3112777E+01  0.3842126E+05  0.3100337E+01
  0.2000000E+01  0.3992964E+06  0.3136789E+01  0.1037776E+03  0.1570467E+01  0.2406297E+05 -0.1570796E+01  0.3786743E+05 -0.1570796E+01  0.2646627E+06  0.3104220E+01  0.3078091E+05  0.3073553E+01
Zone t="FKforce - beta =  90.000",I=    40,F=POINT
  0.5000000E-01  0.3978988E+00 -0.5414775E+00  0.1873142E+04 -0.3141373E+01  0.9791266E+06 -0.1570796E+01  0.1175979E+04 -0.2059064E+01  0.3793213E+03 -0.1575336E+01  0.1337682E+04  0.1566970E+01
  0.9999999E-01  0.1480550E+01 -0.4126447E+00  0.7470293E+04  0.3141087E+01  0.9735252E+06 -0.1570792E+01  0.4661716E+04 -0.2059986E+01  0.5128034E+03 -0.1584557E+01  0.1329781E+04  0.1555455E+01
  0.1500000E+00  0.3303686E+01 -0.4169450E+00  0.1672492E+05  0.3140319E+01  0.9642540E+06 -0.1570775E+01  0.1032920E+05 -0.2061641E+01  0.7326769E+03 -0.1593308E+01  0.1317743E+04  0.1536165E+01
  0.2000000E+00  0.6101284E+01 -0.5210396E+00  0.2952701E+05  0.3139344E+01  0.9514055E+06 -0.1570728E+01  0.1797360E+05 -0.2063832E+01  0.1035626E+04 -0.1600562E+01  0.1299942E+04  0.1508902E+01
  0.2500000E+00  0.1016498E+02 -0.6476670E+00  0.4572463E+05  0.3138094E+01  0.9351103E+06 -0.1570629E+01  0.2731434E+05 -0.2066577E+01  0.1416818E+04 -0.1606860E+01  0.1277824E+04  0.1473442E+01
  0.3000000E+00  0.1574913E+02 -0.7635722E+00  0.6512546E+05  0.3136599E+01  0.9155321E+06 -0.1570450E+01  0.3800740E+05 -0.2069807E+01  0.1871913E+04 -0.1612754E+01  0.1250391E+04  0.1429367E+01
  0.3500000E+00  0.2395675E+02 -0.8951395E+00  0.8749962E+05  0.3134878E+01  0.8928661E+06 -0.1570155E+01  0.4965336E+05 -0.2073458E+01  0.2392940E+04 -0.1618655E+01  0.1219490E+04  0.1376413E+01
  0.4000000E+00  0.3496412E+02 -0.1004076E+01  0.1125820E+06  0.3132946E+01  0.8673368E+06 -0.1569701E+01  0.6181335E+05 -0.2077415E+01  0.2972664E+04 -0.1624778E+01  0.1184542E+04  0.1313934E+01
  0.4500000E+00  0.5016349E+02 -0.1104093E+01  0.1400761E+06  0.3130825E+01  0.8391935E+06 -0.1569042E+01  0.7402062E+05 -0.2081541E+01  0.3603073E+04 -0.1631234E+01  0.1146629E+04  0.1241476E+01
  0.5000000E+00  0.7004272E+02 -0.1188424E+01  0.1696572E+06  0.3128524E+01  0.8087074E+06 -0.1568122E+01  0.8579337E+05 -0.2085678E+01  0.4275283E+04 -0.1638096E+01  0.1106845E+04  0.1158603E+01
  0.5500000E+00  0.9603376E+02 -0.1261693E+01  0.2009766E+06  0.3126087E+01  0.7761688E+06 -0.1566879E+01  0.9665348E+05 -0.2089601E+01  0.4980668E+04 -0.1645361E+01  0.1064760E+04  0.1064374E+01
  0.6000000E+00  0.1282563E+03 -0.1322724E+01  0.2336658E+06  0.3123525E+01  0.7418811E+06 -0.1565245E+01  0.1061387E+06 -0.2093020E+01  0.5709402E+04 -0.1653068E+01  0.1022552E+04  0.9583798E+00
  0.6500000E+00  0.1679922E+03 -0.1375325E+01  0.2673404E+06  0.3120878E+01  0.7061591E+06 -0.1563145E+01  0.1138162E+06 -0.2095565E+01  0.6452511E+04 -0.1661198E+01  0.9801942E+03  0.8399398E+00
  0.7000000E+00  0.2155040E+03 -0.1420670E+01  0.3016052E+06  0.3118166E+01  0.6693213E+06 -0.1560497E+01  0.1192973E+06 -0.2096724E+01  0.7200783E+04 -0.1669734E+01  0.9390311E+03  0.7085987E+00
  0.7500000E+00  0.2713288E+03 -0.1460356E+01  0.3360592E+06  0.3115420E+01  0.6316882E+06 -0.1557210E+01  0.1222531E+06 -0.2095766E+01  0.7945613E+04 -0.1678666E+01  0.8993705E+03  0.5632910E+00
  0.8000000E+00  0.3362572E+03 -0.1495741E+01  0.3702990E+06  0.3112667E+01  0.5935776E+06 -0.1553187E+01  0.1224214E+06 -0.2091664E+01  0.8678284E+04 -0.1687976E+01  0.8621057E+03  0.4031738E+00
  0.8500000E+00  0.4098416E+03 -0.1527581E+01  0.4039248E+06  0.3109934E+01  0.5552993E+06 -0.1548321E+01  0.1196228E+06 -0.2082847E+01  0.9391283E+04 -0.1697654E+01  0.8278558E+03  0.2263741E+00
  0.9000000E+00  0.4928280E+03 -0.1556737E+01  0.4365433E+06  0.3107250E+01  0.5171528E+06 -0.1542497E+01  0.1137738E+06 -0.2066864E+01  0.1007699E+05 -0.1707674E+01  0.7979777E+03  0.3109924E-01
  0.9500000E+00  0.5847301E+03 -0.1583673E+01  0.4677732E+06  0.3104639E+01  0.4794216E+06 -0.1535591E+01  0.1049070E+06 -0.2039603E+01  0.1072958E+05 -0.1718029E+01  0.7748643E+03 -0.1862536E+00
  0.9999999E+00  0.6850349E+03 -0.1608920E+01  0.4972486E+06  0.3102126E+01  0.4423717E+06 -0.1527468E+01  0.9321162E+05 -0.1993684E+01  0.1134269E+05 -0.1728724E+01  0.7631513E+03 -0.4285325E+00
  0.1050000E+01  0.7934872E+03 -0.1632750E+01  0.5246232E+06  0.3099734E+01  0.4062477E+06 -0.1517981E+01  0.7912766E+05 -0.1914690E+01  0.1191098E+05 -0.1739763E+01  0.7704734E+03 -0.6948126E+00
  0.1100000E+01  0.9090616E+03 -0.1655622E+01  0.5495727E+06  0.3097482E+01  0.3712697E+06 -0.1506971E+01  0.6360622E+05 -0.1771784E+01  0.1243054E+05 -0.1751153E+01  0.8067353E+03 -0.9788723E+00
  0.1150000E+01  0.1031026E+04 -0.1677610E+01  0.5717999E+06  0.3095390E+01  0.3376326E+06 -0.1494265E+01  0.4892666E+05 -0.1497263E+01  0.1289736E+05 -0.1762919E+01  0.8836398E+03 -0.1264952E+01
  0.1200000E+01  0.1157880E+04 -0.1699056E+01  0.5910341E+06  0.3093473E+01  0.3055040E+06 -0.1479673E+01  0.4071719E+05 -0.9988775E+00  0.1330841E+05 -0.1775095E+01  0.1010799E+04 -0.1535231E+01
  0.1250000E+01  0.1288423E+04 -0.1720095E+01  0.6070372E+06  0.3091743E+01  0.2750224E+06 -0.1462991E+01  0.4646727E+05 -0.4215264E+00  0.1366093E+05 -0.1787733E+01  0.1192945E+04 -0.1775639E+01
  0.1300000E+01  0.1420883E+04 -0.1740935E+01  0.6196023E+06  0.3090209E+01  0.2462982E+06 -0.1443991E+01  0.6447462E+05 -0.5412198E-01  0.1395324E+05 -0.1800881E+01  0.1432367E+04 -0.1981503E+01
  0.1350000E+01  0.1553711E+04 -0.1761697E+01  0.6285588E+06  0.3088877E+01  0.2194123E+06 -0.1422426E+01  0.8842909E+05  0.1357814E+00  0.1418347E+05 -0.1814621E+01  0.1728574E+04 -0.2154679E+01
  0.1400000E+01  0.1684794E+04 -0.1782583E+01  0.6337695E+06  0.3087751E+01  0.1944183E+06 -0.1398025E+01  0.1149024E+06  0.2372858E+00  0.1435026E+05 -0.1829040E+01  0.2080949E+04 -0.2300301E+01
  0.1450000E+01  0.1812508E+04 -0.1803684E+01  0.6351344E+06  0.3086830E+01  0.1713418E+06 -0.1370487E+01  0.1422398E+06  0.2946298E+00  0.1445273E+05 -0.1844250E+01  0.2488149E+04 -0.2423314E+01
  0.1500000E+01  0.1934435E+04 -0.1825218E+01  0.6325919E+06  0.3086109E+01  0.1501838E+06 -0.1339484E+01  0.1694131E+06  0.3279111E+00  0.1449006E+05 -0.1860378E+01  0.2948203E+04 -0.2528143E+01
  0.1550000E+01  0.2048464E+04 -0.1847356E+01  0.6261168E+06  0.3085580E+01  0.1309209E+06 -0.1304654E+01  0.1956295E+06  0.3470212E+00  0.1446161E+05 -0.1877570E+01  0.3459133E+04 -0.2618655E+01
  0.1600000E+01  0.2152453E+04 -0.1870289E+01  0.6157219E+06  0.3085232E+01  0.1135086E+06 -0.1265601E+01  0.2202047E+06  0.3572969E+00  0.1436694E+05 -0.1896008E+01  0.4017949E+04 -0.2697685E+01
  0.1650000E+01  0.2244273E+04 -0.1894240E+01  0.6014578E+06  0.3085049E+01  0.9788354E+05 -0.1221893E+01  0.2425209E+06  0.3618655E+00  0.1420592E+05 -0.1915895E+01  0.4620403E+04 -0.2767417E+01
  0.1700000E+01  0.2321693E+04 -0.1919482E+01  0.5834139E+06  0.3085011E+01  0.8396633E+05 -0.1173067E+01  0.2620153E+06  0.3626928E+00  0.1397832E+05 -0.1937479E+01  0.5261584E+04 -0.2829614E+01
  0.1750000E+01  0.2382884E+04 -0.1946293E+01  0.5617162E+06  0.3085095E+01  0.7166372E+05 -0.1118627E+01  0.2781780E+06  0.3611042E+00  0.1368450E+05 -0.1961051E+01  0.5935403E+04 -0.2885700E+01
  0.1800000E+01  0.2425821E+04 -0.1975085E+01  0.5365281E+06  0.3085272E+01  0.6087208E+05 -0.1058060E+01  0.2905608E+06  0.3580456E+00  0.1332501E+05 -0.1986958E+01  0.6634229E+04 -0.2936756E+01
  0.1850000E+01  0.2449106E+04 -0.2006275E+01  0.5080508E+06  0.3085505E+01  0.5147975E+05 -0.9908493E+00  0.2987798E+06  0.3542460E+00  0.1290090E+05 -0.2015632E+01  0.7350042E+04 -0.2983720E+01
  0.1900000E+01  0.2451239E+04 -0.2040441E+01  0.4765202E+06  0.3085754E+01  0.4336981E+05 -0.9165019E+00  0.3025272E+06  0.3503121E+00  0.1241395E+05 -0.2047599E+01  0.8072349E+04 -0.3027339E+01
  0.1950000E+01  0.2431421E+04 -0.2078268E+01  0.4422103E+06  0.3085964E+01  0.3642243E+05 -0.8345866E+00  0.3015778E+06  0.3467932E+00  0.1186670E+05 -0.2083533E+01  0.8790584E+04 -0.3068264E+01
  0.2000000E+01  0.2389108E+04 -0.2120665E+01  0.4054272E+06  0.3086069E+01  0.3051721E+05 -0.7447857E+00  0.2957946E+06  0.3442515E+00  0.1126288E+05 -0.2124275E+01  0.9492787E+04 -0.3107053E+01
