VARIABLES="X" "Y" "Z" "Module" "Phase" "Real" "Imag" "Re(NVEL)" "Im(NVEL)"
 ZONE N=         297 , E=         268  , F=FEPOINT,ET=QUADRILATERAL
  -0.5000000E+01  -0.5000000E+01   0.0000000E+00   0.2339289E+01   0.1054225E+01   0.1155379E+01   0.2034053E+01  -0.1383444E+01
   0.6991600E+00
  -0.5000000E+01  -0.3750000E+01   0.0000000E+00   0.5951462E+00   0.2127826E+01  -0.3146342E+00   0.5051775E+00   0.6636456E-07
   0.2028101E-07
  -0.5000000E+01  -0.2500000E+01   0.0000000E+00   0.2023158E+00   0.2722736E+01  -0.1848265E+00   0.8228514E-01   0.4880561E-07
   0.5088672E-07
  -0.5000000E+01  -0.1250000E+01   0.0000000E+00   0.3004631E+00  -0.1787908E+01  -0.6472280E-01  -0.2934094E+00   0.1806003E-07
   0.6932674E-07
  -0.5000000E+01  -0.3755480E-41   0.0000000E+00   0.5986027E+00  -0.1630008E+01  -0.3542358E-01  -0.5975537E+00  -0.1835000E-07
   0.7043979E-07
  -0.5000000E+01   0.1250000E+01   0.0000000E+00   0.7774216E+00  -0.1754359E+01  -0.1419053E+00  -0.7643607E+00  -0.5119431E-07
   0.5337725E-07
  -0.5000000E+01   0.2500000E+01   0.0000000E+00   0.8020743E+00  -0.2098655E+01  -0.4039922E+00  -0.6929022E+00  -0.7186586E-07
   0.2196220E-07
  -0.5000000E+01   0.3750000E+01   0.0000000E+00   0.8505419E+00  -0.2867749E+01  -0.8188495E+00  -0.2300154E+00  -0.7462621E-07
  -0.1614784E-07
  -0.5000000E+01   0.5000000E+01   0.0000000E+00   0.2319417E+01   0.1943394E+01  -0.8443524E+00   0.2160270E+01  -0.1383444E+01
  -0.6991600E+00
  -0.5000000E+01  -0.5000000E+01  -0.1250000E+01   0.2339289E+01   0.1054225E+01   0.1155379E+01   0.2034053E+01  -0.1383444E+01
   0.6991600E+00
  -0.5000000E+01  -0.3750000E+01  -0.1171875E+01   0.3162161E+00   0.2327386E+01  -0.2170650E+00   0.2299465E+00   0.4181529E-07
   0.1277875E-07
  -0.5000000E+01  -0.2500000E+01  -0.1093750E+01   0.1377678E+00  -0.2854681E+01  -0.1321362E+00  -0.3898712E-01   0.3174704E-07
   0.3310075E-07
  -0.5000000E+01  -0.1250000E+01  -0.1015625E+01   0.2968766E+00  -0.1743489E+01  -0.5101391E-01  -0.2924608E+00   0.1212792E-07
   0.4655526E-07
  -0.5000000E+01  -0.3755480E-41  -0.9375000E+00   0.5036955E+00  -0.1624194E+01  -0.2688321E-01  -0.5029776E+00  -0.1272151E-07
   0.4883381E-07
  -0.5000000E+01   0.1250000E+01  -0.8593750E+00   0.6190963E+00  -0.1733550E+01  -0.1003161E+00  -0.6109148E+00  -0.3664028E-07
   0.3820263E-07
  -0.5000000E+01   0.2500000E+01  -0.7812500E+00   0.6258389E+00  -0.2059593E+01  -0.2938716E+00  -0.5525522E+00  -0.5309997E-07
   0.1622734E-07
  -0.5000000E+01   0.3750000E+01  -0.7031250E+00   0.6405045E+00  -0.2849656E+01  -0.6134036E+00  -0.1843421E+00  -0.5692429E-07
  -0.1231744E-07
  -0.5000000E+01   0.5000000E+01  -0.6250000E+00   0.6405045E+00  -0.2849656E+01  -0.6134036E+00  -0.1843421E+00  -0.5692429E-07
  -0.1231744E-07
  -0.5000000E+01  -0.5000000E+01  -0.2500000E+01   0.1377059E+01   0.1009218E+01   0.7333148E+00   0.1165564E+01  -0.8310145E+00
   0.4199752E+00
  -0.5000000E+01  -0.3750000E+01  -0.2343750E+01   0.1819188E+00   0.2413293E+01  -0.1357673E+00   0.1210855E+00   0.2634718E-07
   0.8051697E-08
  -0.5000000E+01  -0.2500000E+01  -0.2187500E+01   0.1012508E+00  -0.2626396E+01  -0.8810802E-01  -0.4988688E-01   0.2065079E-07
   0.2153135E-07
  -0.5000000E+01  -0.1250000E+01  -0.2031250E+01   0.2168014E+00  -0.1734551E+01  -0.3534382E-01  -0.2139011E+00   0.8144313E-08
   0.3126344E-07
  -0.5000000E+01  -0.3755480E-41  -0.1875000E+01   0.3688833E+00  -0.1607686E+01  -0.1360481E-01  -0.3686323E+00  -0.8819442E-08
   0.3385503E-07
  -0.5000000E+01   0.1250000E+01  -0.1718750E+01   0.4653907E+00  -0.1703977E+01  -0.6179780E-01  -0.4612695E+00  -0.2622382E-07
   0.2734201E-07
  -0.5000000E+01   0.2500000E+01  -0.1562500E+01   0.4652070E+00  -0.2047827E+01  -0.2135968E+00  -0.4132722E+00  -0.3923431E-07
   0.1199000E-07
  -0.5000000E+01   0.3750000E+01  -0.1406250E+01   0.4854044E+00  -0.2837169E+01  -0.4630855E+00  -0.1454965E+00  -0.4342141E-07
  -0.9395650E-08
  -0.5000000E+01   0.5000000E+01  -0.1250000E+01   0.2319417E+01   0.1943394E+01  -0.8443524E+00   0.2160270E+01  -0.1383444E+01
  -0.6991600E+00
  -0.5000000E+01  -0.5000000E+01  -0.3750000E+01   0.8162731E+00   0.9947430E+00   0.4446390E+00   0.6845421E+00  -0.4991782E+00
   0.2522729E+00
  -0.5000000E+01  -0.3750000E+01  -0.3515625E+01   0.1073964E+00   0.2416040E+01  -0.8034678E-01   0.7126279E-01   0.1660095E-07
   0.5073251E-08
  -0.5000000E+01  -0.2500000E+01  -0.3281250E+01   0.6531101E-01  -0.2513261E+01  -0.5283721E-01  -0.3838955E-01   0.1343291E-07
   0.1400570E-07
  -0.5000000E+01  -0.1250000E+01  -0.3046875E+01   0.1521788E+00  -0.1686455E+01  -0.1756166E-01  -0.1511620E+00   0.5469183E-08
   0.2099447E-07
  -0.5000000E+01  -0.3755480E-41  -0.2812500E+01   0.2611943E+00  -0.1571942E+01  -0.2992898E-03  -0.2611942E+00  -0.6114257E-08
   0.2347068E-07
  -0.5000000E+01   0.1250000E+01  -0.2578125E+01   0.3292167E+00  -0.1688744E+01  -0.3874045E-01  -0.3269293E+00  -0.1876865E-07
   0.1956895E-07
  -0.5000000E+01   0.2500000E+01  -0.2343750E+01   0.3429897E+00  -0.2052409E+01  -0.1588759E+00  -0.3039744E+00  -0.2898930E-07
   0.8859125E-08
  -0.5000000E+01   0.3750000E+01  -0.2109375E+01   0.3665944E+00  -0.2827052E+01  -0.3486087E+00  -0.1134169E+00  -0.3312151E-07
  -0.7166929E-08
  -0.5000000E+01   0.5000000E+01  -0.1875000E+01   0.3665944E+00  -0.2827052E+01  -0.3486087E+00  -0.1134169E+00  -0.3312151E-07
  -0.7166929E-08
  -0.5000000E+01  -0.5000000E+01  -0.5000000E+01   0.4865924E+00   0.9715838E+00   0.2744344E+00   0.4018183E+00  -0.2998491E+00
   0.1515367E+00
  -0.5000000E+01  -0.3750000E+01  -0.4687500E+01   0.6489450E-01   0.2456270E+01  -0.5024229E-01   0.4107323E-01   0.1046000E-07
   0.3196577E-08
  -0.5000000E+01  -0.2500000E+01  -0.4375000E+01   0.3823829E-01  -0.2531067E+01  -0.3133043E-01  -0.2192193E-01   0.8737829E-08
   0.9110417E-08
  -0.5000000E+01  -0.1250000E+01  -0.4062500E+01   0.1024247E+00  -0.1555374E+01   0.1579579E-02  -0.1024125E+00   0.3672742E-08
   0.1409850E-07
  -0.5000000E+01  -0.3755480E-41  -0.3750000E+01   0.1752343E+00  -0.1516213E+01   0.9560101E-02  -0.1749733E+00  -0.4238832E-08
   0.1627153E-07
  -0.5000000E+01   0.1250000E+01  -0.3437500E+01   0.2218564E+00  -0.1695960E+01  -0.2769599E-01  -0.2201209E+00  -0.1343291E-07
   0.1400570E-07
  -0.5000000E+01   0.2500000E+01  -0.3125000E+01   0.2482973E+00  -0.2026089E+01  -0.1091826E+00  -0.2230038E+00  -0.2141950E-07
   0.6545798E-08
  -0.5000000E+01   0.3750000E+01  -0.2812500E+01   0.2706128E+00  -0.2845262E+01  -0.2588179E+00  -0.7902250E-01  -0.2526483E-07
  -0.5466878E-08
  -0.5000000E+01   0.5000000E+01  -0.2500000E+01   0.1371114E+01   0.1923476E+01  -0.4736010E+00   0.1286723E+01  -0.8310145E+00
  -0.4199752E+00
  -0.5000000E+01  -0.5000000E+01  -0.6250000E+01   0.2894469E+00   0.9333786E+00   0.1722563E+00   0.2326098E+00  -0.1801149E+00
   0.9102586E-01
  -0.5000000E+01  -0.3750000E+01  -0.5859375E+01   0.3468708E-01   0.2138021E+01  -0.1863715E-01   0.2925492E-01   0.6590688E-08
   0.2014114E-08
  -0.5000000E+01  -0.2500000E+01  -0.5468750E+01   0.1527321E-01  -0.1860549E+01  -0.4363788E-02  -0.1463654E-01   0.5683776E-08
   0.5926137E-08
  -0.5000000E+01  -0.1250000E+01  -0.5078125E+01   0.7138486E-01  -0.1393874E+01   0.1256377E-01  -0.7027055E-01   0.2466372E-08
   0.9467621E-08
  -0.5000000E+01  -0.3755480E-41  -0.4687500E+01   0.1106029E+00  -0.1494248E+01   0.8458201E-02  -0.1102790E+00  -0.2938657E-08
   0.1128057E-07
  -0.5000000E+01   0.1250000E+01  -0.4296875E+01   0.1475722E+00  -0.1594815E+01  -0.3544118E-02  -0.1475296E+00  -0.9614070E-08
   0.1002402E-07
  -0.5000000E+01   0.2500000E+01  -0.3906250E+01   0.1627783E+00  -0.2001670E+01  -0.6798682E-01  -0.1479006E+00  -0.1582636E-07
   0.4836535E-08
  -0.5000000E+01   0.3750000E+01  -0.3515625E+01   0.2045581E+00  -0.2901866E+01  -0.1987083E+00  -0.4856974E-01  -0.1927182E-07
  -0.4170092E-08
  -0.5000000E+01   0.5000000E+01  -0.3125000E+01   0.2045581E+00  -0.2901866E+01  -0.1987083E+00  -0.4856974E-01  -0.1927182E-07
  -0.4170092E-08
  -0.5000000E+01  -0.5000000E+01  -0.7500000E+01   0.1659424E+00   0.9390670E+00   0.9799583E-01   0.1339168E+00  -0.1081924E+00
   0.5467791E-01
  -0.5000000E+01  -0.3750000E+01  -0.7031250E+01   0.1224914E-01   0.2050437E+01  -0.5652491E-02   0.1086696E-01   0.4152691E-08
   0.1269062E-08
  -0.5000000E+01  -0.2500000E+01  -0.6562500E+01   0.1273515E-01  -0.1499175E+01   0.9113271E-03  -0.1270250E-01   0.3697178E-08
   0.3854829E-08
  -0.5000000E+01  -0.1250000E+01  -0.6093750E+01   0.4844234E-01  -0.9864613E+00   0.2672297E-01  -0.4040474E-01   0.1656252E-08
   0.6357829E-08
  -0.5000000E+01  -0.3755480E-41  -0.5625000E+01   0.7315289E-01  -0.1127355E+01   0.3138630E-01  -0.6607758E-01  -0.2037283E-08
   0.7820481E-08
  -0.5000000E+01   0.1250000E+01  -0.5156250E+01   0.8931344E-01  -0.1412408E+01   0.1408709E-01  -0.8819549E-01  -0.6880887E-08
   0.7174291E-08
  -0.5000000E+01   0.2500000E+01  -0.4687500E+01   0.9793776E-01  -0.2057359E+01  -0.4579470E-01  -0.8657165E-01  -0.1169372E-07
   0.3573600E-08
  -0.5000000E+01   0.3750000E+01  -0.4218750E+01   0.1423537E+00  -0.3010433E+01  -0.1411310E+00  -0.1861752E-01  -0.1470039E-07
  -0.3180914E-08
  -0.5000000E+01   0.5000000E+01  -0.3750000E+01   0.8093415E+00   0.1917315E+01  -0.2748733E+00   0.7612348E+00  -0.4991782E+00
  -0.2522729E+00
  -0.5000000E+01  -0.5000000E+01  -0.8750000E+01   0.9617969E-01   0.8647946E+00   0.6240104E-01   0.7318909E-01  -0.6498960E-01
   0.3284422E-01
  -0.5000000E+01  -0.3750000E+01  -0.8203125E+01   0.8640470E-02  -0.9775442E+00   0.4830545E-02  -0.7164046E-02   0.2616547E-08
   0.7996169E-09
  -0.5000000E+01  -0.2500000E+01  -0.7656250E+01   0.3374625E-01  -0.8127843E+00   0.2319984E-01  -0.2450667E-01   0.2404938E-08
   0.2507486E-08
  -0.5000000E+01  -0.1250000E+01  -0.7109375E+01   0.5729388E-01  -0.7432196E+00   0.4218513E-01  -0.3876859E-01   0.1112230E-08
   0.4269499E-08
  -0.5000000E+01  -0.3755480E-41  -0.6562500E+01   0.6440430E-01  -0.6940480E+00   0.4950520E-01  -0.4119647E-01  -0.1412388E-08
   0.5421707E-08
  -0.5000000E+01   0.1250000E+01  -0.6015625E+01   0.5784538E-01  -0.6162151E+00   0.4720598E-01  -0.3343177E-01  -0.4924721E-08
   0.5134713E-08
  -0.5000000E+01   0.2500000E+01  -0.5468750E+01   0.1954868E-01  -0.1633560E+01  -0.1226136E-02  -0.1951019E-01  -0.8640213E-08
   0.2640448E-08
  -0.5000000E+01   0.3750000E+01  -0.4921875E+01   0.1096433E+00   0.2925363E+01  -0.1070901E+00   0.2352384E-01  -0.1121335E-07
  -0.2426376E-08
  -0.5000000E+01   0.5000000E+01  -0.4375000E+01   0.1096433E+00   0.2925363E+01  -0.1070901E+00   0.2352384E-01  -0.1121335E-07
  -0.2426376E-08
  -0.5000000E+01  -0.5000000E+01  -0.1000000E+02   0.3940806E-01   0.8423468E+00   0.2623447E-01   0.2940659E-01  -0.3903831E-01
   0.1972904E-01
  -0.5000000E+01  -0.3750000E+01  -0.9375000E+01   0.8640470E-02  -0.9775442E+00   0.4830545E-02  -0.7164046E-02   0.2616547E-08
   0.7996169E-09
  -0.5000000E+01  -0.2500000E+01  -0.8750000E+01   0.3374625E-01  -0.8127843E+00   0.2319984E-01  -0.2450667E-01   0.2404938E-08
   0.2507486E-08
  -0.5000000E+01  -0.1250000E+01  -0.8125000E+01   0.5729388E-01  -0.7432196E+00   0.4218513E-01  -0.3876859E-01   0.1112230E-08
   0.4269499E-08
  -0.5000000E+01  -0.3755480E-41  -0.7500000E+01   0.6440430E-01  -0.6940480E+00   0.4950520E-01  -0.4119647E-01  -0.1412388E-08
   0.5421707E-08
  -0.5000000E+01   0.1250000E+01  -0.6875000E+01   0.5784538E-01  -0.6162151E+00   0.4720598E-01  -0.3343177E-01  -0.4924721E-08
   0.5134713E-08
  -0.5000000E+01   0.2500000E+01  -0.6250000E+01   0.1954868E-01  -0.1633560E+01  -0.1226136E-02  -0.1951019E-01  -0.8640213E-08
   0.2640448E-08
  -0.5000000E+01   0.3750000E+01  -0.5625000E+01   0.1096433E+00   0.2925363E+01  -0.1070901E+00   0.2352384E-01  -0.1121335E-07
  -0.2426376E-08
  -0.5000000E+01   0.5000000E+01  -0.5000000E+01   0.3411974E+00   0.1776157E+01  -0.6957711E-01   0.3340279E+00  -0.5124587E-01
  -0.2267852E+00
  -0.3750000E+01   0.5000000E+01  -0.5000000E+01   0.5210245E+00   0.1738920E+01  -0.8718447E-01   0.5136783E+00  -0.5124587E-01
  -0.2267852E+00
  -0.3750000E+01   0.5000000E+01  -0.3750000E+01   0.1457721E+01   0.1868390E+01  -0.4274337E+00   0.1393647E+01  -0.4991782E+00
  -0.2522729E+00
  -0.3750000E+01   0.5000000E+01  -0.2500000E+01   0.2478531E+01   0.1870340E+01  -0.7313743E+00   0.2368165E+01  -0.8310145E+00
  -0.4199752E+00
  -0.3750000E+01   0.5000000E+01  -0.1250000E+01   0.4222065E+01   0.1879154E+01  -0.1281374E+01   0.4022924E+01  -0.1383444E+01
  -0.6991600E+00
  -0.3750000E+01   0.5000000E+01   0.0000000E+00   0.4222065E+01   0.1879154E+01  -0.1281374E+01   0.4022924E+01  -0.1383444E+01
  -0.6991600E+00
  -0.2500000E+01   0.5000000E+01  -0.5000000E+01   0.6196036E+00   0.1757282E+01  -0.1148784E+00   0.6088609E+00  -0.5124587E-01
  -0.2267852E+00
  -0.2500000E+01   0.5000000E+01  -0.3750000E+01   0.1906803E+01   0.1888409E+01  -0.5954929E+00   0.1811432E+01  -0.4991782E+00
  -0.2522729E+00
  -0.2500000E+01   0.5000000E+01  -0.2500000E+01   0.3250180E+01   0.1888110E+01  -0.1014107E+01   0.3087922E+01  -0.8310145E+00
  -0.4199752E+00
  -0.2500000E+01   0.5000000E+01  -0.1250000E+01   0.5564414E+01   0.1890926E+01  -0.1751062E+01   0.5281712E+01  -0.1383444E+01
  -0.6991600E+00
  -0.2500000E+01   0.5000000E+01   0.0000000E+00   0.5564414E+01   0.1890926E+01  -0.1751062E+01   0.5281712E+01  -0.1383444E+01
  -0.6991600E+00
  -0.1250000E+01   0.5000000E+01  -0.5000000E+01   0.6658319E+00   0.1769092E+01  -0.1311683E+00   0.6527840E+00  -0.5124587E-01
  -0.2267852E+00
  -0.1250000E+01   0.5000000E+01  -0.3750000E+01   0.2138710E+01   0.1900271E+01  -0.6919716E+00   0.2023674E+01  -0.4991782E+00
  -0.2522729E+00
  -0.1250000E+01   0.5000000E+01  -0.2500000E+01   0.3648702E+01   0.1898958E+01  -0.1175990E+01   0.3453994E+01  -0.8310145E+00
  -0.4199752E+00
  -0.1250000E+01   0.5000000E+01  -0.1250000E+01   0.6258916E+01   0.1899482E+01  -0.2020374E+01   0.5923860E+01  -0.1383444E+01
  -0.6991600E+00
  -0.1250000E+01   0.5000000E+01   0.0000000E+00   0.6258916E+01   0.1899482E+01  -0.2020374E+01   0.5923860E+01  -0.1383444E+01
  -0.6991600E+00
  -0.3755480E-41   0.5000000E+01  -0.5000000E+01   0.6658319E+00   0.1769092E+01  -0.1311683E+00   0.6527840E+00  -0.5124587E-01
  -0.2267852E+00
  -0.3755480E-41   0.5000000E+01  -0.3750000E+01   0.2120915E+01   0.1897932E+01  -0.6815178E+00   0.2008436E+01  -0.4991782E+00
  -0.2522729E+00
  -0.3755480E-41   0.5000000E+01  -0.2500000E+01   0.3618110E+01   0.1896412E+01  -0.1157406E+01   0.3427992E+01  -0.8310145E+00
  -0.4199752E+00
  -0.3755480E-41   0.5000000E+01  -0.1250000E+01   0.6210288E+01   0.1897217E+01  -0.1991356E+01   0.5882361E+01  -0.1383444E+01
  -0.6991600E+00
  -0.3755480E-41   0.5000000E+01   0.0000000E+00   0.6210288E+01   0.1897217E+01  -0.1991356E+01   0.5882361E+01  -0.1383444E+01
  -0.6991600E+00
   0.1250000E+01   0.5000000E+01  -0.5000000E+01   0.6011496E+00   0.1748074E+01  -0.1060131E+00   0.5917280E+00  -0.5124587E-01
  -0.2267852E+00
   0.1250000E+01   0.5000000E+01  -0.3750000E+01   0.1858458E+01   0.1881029E+01  -0.5673512E+00   0.1769740E+01  -0.4991782E+00
  -0.2522729E+00
   0.1250000E+01   0.5000000E+01  -0.2500000E+01   0.3166244E+01   0.1880140E+01  -0.9639108E+00   0.3015953E+01  -0.8310145E+00
  -0.4199752E+00
   0.1250000E+01   0.5000000E+01  -0.1250000E+01   0.5426318E+01   0.1884207E+01  -0.1672962E+01   0.5161988E+01  -0.1383444E+01
  -0.6991600E+00
   0.1250000E+01   0.5000000E+01   0.0000000E+00   0.5426318E+01   0.1884207E+01  -0.1672962E+01   0.5161988E+01  -0.1383444E+01
  -0.6991600E+00
   0.2500000E+01   0.5000000E+01  -0.5000000E+01   0.4915246E+00   0.1727293E+01  -0.7660829E-01   0.4855179E+00  -0.5124587E-01
  -0.2267852E+00
   0.2500000E+01   0.5000000E+01  -0.3750000E+01   0.1387823E+01   0.1857445E+01  -0.3923919E+00   0.1331196E+01  -0.4991782E+00
  -0.2522729E+00
   0.2500000E+01   0.5000000E+01  -0.2500000E+01   0.2356757E+01   0.1858222E+01  -0.6681049E+00   0.2260075E+01  -0.8310145E+00
  -0.4199752E+00
   0.2500000E+01   0.5000000E+01  -0.1250000E+01   0.4017023E+01   0.1870137E+01  -0.1184581E+01   0.3838391E+01  -0.1383444E+01
  -0.6991600E+00
   0.2500000E+01   0.5000000E+01   0.0000000E+00   0.4017023E+01   0.1870137E+01  -0.1184581E+01   0.3838391E+01  -0.1383444E+01
  -0.6991600E+00
   0.3750000E+01   0.5000000E+01  -0.5000000E+01   0.2976300E+00   0.1789734E+01  -0.6464307E-01   0.2905251E+00  -0.5124587E-01
  -0.2267852E+00
   0.3750000E+01   0.5000000E+01  -0.3750000E+01   0.7283702E+00   0.1929840E+01  -0.2559344E+00   0.6819243E+00  -0.4991782E+00
  -0.2522729E+00
   0.3750000E+01   0.5000000E+01  -0.2500000E+01   0.1233722E+01   0.1932296E+01  -0.4363395E+00   0.1153984E+01  -0.8310145E+00
  -0.4199752E+00
   0.3750000E+01   0.5000000E+01  -0.1250000E+01   0.2106766E+01   0.1955957E+01  -0.7915288E+00   0.1952420E+01  -0.1383444E+01
  -0.6991600E+00
   0.3750000E+01   0.5000000E+01   0.0000000E+00   0.2106766E+01   0.1955957E+01  -0.7915288E+00   0.1952420E+01  -0.1383444E+01
  -0.6991600E+00
   0.5000000E+01   0.5000000E+01  -0.5000000E+01   0.2976300E+00   0.1789734E+01  -0.6464307E-01   0.2905251E+00  -0.5124587E-01
  -0.2267852E+00
   0.5000000E+01   0.5000000E+01  -0.3750000E+01   0.3256893E+00  -0.2719451E+01  -0.2970981E+00  -0.1334399E+00   0.2211661E-07
   0.5445446E-08
   0.5000000E+01   0.5000000E+01  -0.2500000E+01   0.5669098E+00  -0.2759032E+01  -0.5259290E+00  -0.2116257E+00   0.3787641E-07
   0.9325750E-08
   0.5000000E+01   0.5000000E+01  -0.1250000E+01   0.9491817E+00  -0.2911700E+01  -0.9242097E+00  -0.2162927E+00   0.6486630E-07
   0.1597107E-07
   0.5000000E+01   0.5000000E+01   0.0000000E+00   0.9491817E+00  -0.2911700E+01  -0.9242097E+00  -0.2162927E+00   0.6486630E-07
   0.1597107E-07
   0.5000000E+01   0.3888889E+01  -0.5555555E+01   0.2976300E+00   0.1789734E+01  -0.6464307E-01   0.2905251E+00  -0.5124587E-01
  -0.2267852E+00
   0.5000000E+01   0.3888889E+01  -0.4166667E+01   0.3405588E+00  -0.2255032E+01  -0.2152607E+00  -0.2638998E+00   0.1932912E-07
  -0.4152992E-08
   0.5000000E+01   0.3888889E+01  -0.2777778E+01   0.5864069E+00  -0.2374936E+01  -0.4223503E+00  -0.4068087E+00   0.3503138E-07
  -0.7526728E-08
   0.5000000E+01   0.3888889E+01  -0.1388889E+01   0.9335515E+00  -0.2575757E+01  -0.7880487E+00  -0.5004973E+00   0.6348956E-07
  -0.1364116E-07
   0.5000000E+01   0.3888889E+01   0.0000000E+00   0.9335515E+00  -0.2575757E+01  -0.7880487E+00  -0.5004973E+00   0.6348956E-07
  -0.1364116E-07
   0.5000000E+01   0.2777778E+01  -0.6111111E+01   0.2062456E+00   0.1251755E+01   0.6469026E-01   0.1958377E+00  -0.1158814E+00
  -0.1446898E+00
   0.5000000E+01   0.2777778E+01  -0.4583333E+01   0.3110911E+00  -0.2177344E+01  -0.1773325E+00  -0.2555990E+00   0.1350700E-07
  -0.1058476E-07
   0.5000000E+01   0.2777778E+01  -0.3055556E+01   0.5482945E+00  -0.2261688E+01  -0.3493868E+00  -0.4225586E+00   0.2590590E-07
  -0.2030115E-07
   0.5000000E+01   0.2777778E+01  -0.1527778E+01   0.8374648E+00  -0.2551930E+01  -0.6960409E+00  -0.4656978E+00   0.4968651E-07
  -0.3893683E-07
   0.5000000E+01   0.2777778E+01   0.0000000E+00   0.8374648E+00  -0.2551930E+01  -0.6960409E+00  -0.4656978E+00   0.4968651E-07
  -0.3893683E-07
   0.5000000E+01   0.1666667E+01  -0.6666667E+01   0.1666313E+00   0.5665894E+00   0.1405929E+00   0.8944061E-01  -0.1335660E+00
  -0.6328164E-01
   0.5000000E+01   0.1666667E+01  -0.5000000E+01   0.2561054E+00  -0.2174447E+01  -0.1453786E+00  -0.2108437E+00   0.6519682E-08
  -0.1339225E-07
   0.5000000E+01   0.1666667E+01  -0.3333333E+01   0.4708155E+00  -0.2319319E+01  -0.3204167E+00  -0.3449643E+00   0.1323308E-07
  -0.2718241E-07
   0.5000000E+01   0.1666667E+01  -0.1666667E+01   0.7082976E+00  -0.2725826E+01  -0.6479555E+00  -0.2860752E+00   0.2685936E-07
  -0.5517250E-07
   0.5000000E+01   0.1666667E+01   0.0000000E+00   0.7082976E+00  -0.2725826E+01  -0.6479555E+00  -0.2860752E+00   0.2685936E-07
  -0.5517250E-07
   0.5000000E+01   0.5555553E+00  -0.7222222E+01   0.1661104E+00  -0.7275800E-01   0.1656709E+00  -0.1207520E-01  -0.1178330E+00
   0.1248509E-02
   0.5000000E+01   0.5555553E+00  -0.5416667E+01   0.2092262E+00  -0.2171045E+01  -0.1181809E+00  -0.1726525E+00  -0.1152144E-14
  -0.1292859E-07
   0.5000000E+01   0.5555553E+00  -0.3611111E+01   0.3850253E+00  -0.2490936E+01  -0.3063593E+00  -0.2332133E+00  -0.2474777E-14
  -0.2777030E-07
   0.5000000E+01   0.5555553E+00  -0.1805555E+01   0.6315083E+00  -0.3076005E+01  -0.6301505E+00  -0.4138917E-01  -0.5315761E-14
  -0.5964992E-07
   0.5000000E+01   0.5555553E+00   0.0000000E+00   0.6315083E+00  -0.3076005E+01  -0.6301505E+00  -0.4138917E-01  -0.5315761E-14
  -0.5964992E-07
   0.5000000E+01  -0.5555553E+00  -0.7777778E+01   0.1508213E+00  -0.5289652E+00   0.1302085E+00  -0.7611051E-01  -0.8403446E-01
   0.4201724E-01
   0.5000000E+01  -0.5555553E+00  -0.5833333E+01   0.1637230E+00  -0.2306037E+01  -0.1098198E+00  -0.1214283E+00  -0.4911936E-08
  -0.1008973E-07
   0.5000000E+01  -0.5555553E+00  -0.3888889E+01   0.3174807E+00  -0.2736925E+01  -0.2918388E+00  -0.1249964E+00  -0.1116547E-07
  -0.2293526E-07
   0.5000000E+01  -0.5555553E+00  -0.1944445E+01   0.6626346E+00   0.2792859E+01  -0.6227480E+00   0.2264279E+00  -0.2538055E-07
  -0.5213482E-07
   0.5000000E+01  -0.5555553E+00   0.0000000E+00   0.6626346E+00   0.2792859E+01  -0.6227480E+00   0.2264279E+00  -0.2538055E-07
  -0.5213482E-07
   0.5000000E+01  -0.1666667E+01  -0.8333333E+01   0.1360804E+00  -0.9171961E+00   0.8274351E-01  -0.1080342E+00  -0.4557774E-01
   0.5944753E-01
   0.5000000E+01  -0.1666667E+01  -0.6250000E+01   0.1292319E+00  -0.2698109E+01  -0.1167303E+00  -0.5545192E-01  -0.7666745E-08
  -0.6008043E-08
   0.5000000E+01  -0.1666667E+01  -0.4166667E+01   0.2790460E+00  -0.3045994E+01  -0.2777719E+00  -0.2663577E-01  -0.1844294E-07
  -0.1445280E-07
   0.5000000E+01  -0.1666667E+01  -0.2083333E+01   0.7567800E+00   0.2497937E+01  -0.6053540E+00   0.4541613E+00  -0.4436587E-07
  -0.3476730E-07
   0.5000000E+01  -0.1666667E+01   0.0000000E+00   0.7567800E+00   0.2497937E+01  -0.6053540E+00   0.4541613E+00  -0.4436587E-07
  -0.3476730E-07
   0.5000000E+01  -0.2777778E+01  -0.8888889E+01   0.1146704E+00  -0.1267321E+01   0.3426792E-01  -0.1094304E+00  -0.1192652E-01
   0.5852181E-01
   0.5000000E+01  -0.2777778E+01  -0.6666667E+01   0.1045342E+00  -0.3132610E+01  -0.1045300E+00  -0.9389669E-03  -0.8265906E-08
  -0.1775983E-08
   0.5000000E+01  -0.2777778E+01  -0.4444445E+01   0.2687535E+00   0.2811723E+01  -0.2542635E+00   0.8705468E-01  -0.2104284E-07
  -0.4521188E-08
   0.5000000E+01  -0.2777778E+01  -0.2222222E+01   0.8387486E+00   0.2292267E+01  -0.5539851E+00   0.6297618E+00  -0.5356955E-07
  -0.1150976E-07
   0.5000000E+01  -0.2777778E+01   0.0000000E+00   0.8387486E+00   0.2292267E+01  -0.5539851E+00   0.6297618E+00  -0.5356955E-07
  -0.1150976E-07
   0.5000000E+01  -0.3888889E+01  -0.9444445E+01   0.9126525E-01  -0.1515150E+01   0.5075928E-02  -0.9112399E-01   0.1187364E-01
   0.4611433E-01
   0.5000000E+01  -0.3888889E+01  -0.7083333E+01   0.7976961E-01   0.2543904E+01  -0.6594062E-01   0.4488903E-01  -0.7125627E-08
   0.1754438E-08
   0.5000000E+01  -0.3888889E+01  -0.4722222E+01   0.2669712E+00   0.2291936E+01  -0.1762654E+00   0.2005097E+00  -0.1919692E-07
   0.4726574E-08
   0.5000000E+01  -0.3888889E+01  -0.2361111E+01   0.8780420E+00   0.2033311E+01  -0.3917826E+00   0.7857888E+00  -0.5171780E-07
   0.1273371E-07
   0.5000000E+01  -0.3888889E+01   0.0000000E+00   0.8780420E+00   0.2033311E+01  -0.3917826E+00   0.7857888E+00  -0.5171780E-07
   0.1273371E-07
   0.5000000E+01  -0.5000000E+01  -0.1000000E+02   0.3065574E-01   0.4824678E+00   0.2715646E-01   0.1422324E-01  -0.3903831E-01
   0.1972904E-01
   0.5000000E+01  -0.5000000E+01  -0.7500000E+01   0.1441581E+00   0.8509989E+00   0.9503369E-01   0.1083981E+00  -0.1081924E+00
   0.5467791E-01
   0.5000000E+01  -0.5000000E+01  -0.5000000E+01   0.4296160E+00   0.9464675E+00   0.2511333E+00   0.3485714E+00  -0.2998491E+00
   0.1515367E+00
   0.5000000E+01  -0.5000000E+01  -0.2500000E+01   0.1281783E+01   0.1007901E+01   0.6840067E+00   0.1084021E+01  -0.8310145E+00
   0.4199752E+00
   0.5000000E+01  -0.5000000E+01   0.0000000E+00   0.2231417E+01   0.1051799E+01   0.1106804E+01   0.1937577E+01  -0.1383444E+01
   0.6991600E+00
   0.3755480E-41  -0.5000000E+01  -0.1000000E+02   0.9658161E-01   0.8418218E+00   0.6433350E-01   0.7203615E-01  -0.3903831E-01
   0.1972904E-01
   0.2920306E-41  -0.3888889E+01  -0.9444445E+01   0.9816194E-01  -0.1279693E+01   0.2817343E-01  -0.9403203E-01   0.1187363E-01
   0.4611433E-01
   0.2086533E-41  -0.2777778E+01  -0.8888889E+01   0.1415422E+00  -0.9483130E+00   0.8252683E-01  -0.1149936E+00  -0.1192653E-01
   0.5852181E-01
   0.1251360E-41  -0.1666667E+01  -0.8333333E+01   0.1763690E+00  -0.5395154E+00   0.1513171E+00  -0.9060434E-01  -0.4557774E-01
   0.5944752E-01
   0.4175869E-42  -0.5555553E+00  -0.7777778E+01   0.2162493E+00  -0.3561921E-01   0.2161121E+00  -0.7700999E-02  -0.8403446E-01
   0.4201723E-01
  -0.4175869E-42   0.5555553E+00  -0.7222222E+01   0.2734783E+00   0.4598084E+00   0.2450742E+00   0.1213632E+00  -0.1178330E+00
   0.1248498E-02
  -0.1251360E-41   0.1666667E+01  -0.6666667E+01   0.3546030E+00   0.9223320E+00   0.2141671E+00   0.2826230E+00  -0.1335660E+00
  -0.6328165E-01
  -0.2086533E-41   0.2777778E+01  -0.6111111E+01   0.4845479E+00   0.1375359E+01   0.9409723E-01   0.4753235E+00  -0.1158814E+00
  -0.1446899E+00
  -0.2920306E-41   0.3888889E+01  -0.5555555E+01   0.6658319E+00   0.1769092E+01  -0.1311683E+00   0.6527840E+00  -0.5124587E-01
  -0.2267852E+00
   0.1250000E+01  -0.5000000E+01  -0.1000000E+02   0.9570900E-01   0.8194051E+00   0.6533632E-01   0.6993838E-01  -0.3903831E-01
   0.1972904E-01
   0.1250000E+01  -0.3888889E+01  -0.9444445E+01   0.1032001E+00  -0.1319912E+01   0.2562053E-01  -0.9996928E-01   0.1187363E-01
   0.4611433E-01
   0.1250000E+01  -0.2777778E+01  -0.8888889E+01   0.1395705E+00  -0.1015991E+01   0.7352260E-01  -0.1186354E+00  -0.1192653E-01
   0.5852181E-01
   0.1250000E+01  -0.1666667E+01  -0.8333333E+01   0.1712365E+00  -0.6067125E+00   0.1406754E+00  -0.9763385E-01  -0.4557774E-01
   0.5944752E-01
   0.1250000E+01  -0.5555553E+00  -0.7777778E+01   0.2055558E+00  -0.1109297E+00   0.2042923E+00  -0.2275550E-01  -0.8403446E-01
   0.4201723E-01
   0.1250000E+01   0.5555553E+00  -0.7222222E+01   0.2597184E+00   0.3792584E+00   0.2412627E+00   0.9615600E-01  -0.1178330E+00
   0.1248501E-02
   0.1250000E+01   0.1666667E+01  -0.6666667E+01   0.3267346E+00   0.8832735E+00   0.2073538E+00   0.2525072E+00  -0.1335660E+00
  -0.6328165E-01
   0.1250000E+01   0.2777778E+01  -0.6111111E+01   0.4422036E+00   0.1352360E+01   0.9582699E-01   0.4316958E+00  -0.1158814E+00
  -0.1446899E+00
   0.1250000E+01   0.3888889E+01  -0.5555555E+01   0.6011496E+00   0.1748074E+01  -0.1060131E+00   0.5917280E+00  -0.5124587E-01
  -0.2267852E+00
   0.2500000E+01  -0.5000000E+01  -0.1000000E+02   0.8359721E-01   0.7590248E+00   0.6065040E-01   0.5753279E-01  -0.3903831E-01
   0.1972904E-01
   0.2500000E+01  -0.3888889E+01  -0.9444445E+01   0.1013161E+00  -0.1386864E+01   0.1853044E-01  -0.9960708E-01   0.1187364E-01
   0.4611433E-01
   0.2500000E+01  -0.2777778E+01  -0.8888889E+01   0.1313515E+00  -0.1094975E+01   0.6016805E-01  -0.1167605E+00  -0.1192652E-01
   0.5852181E-01
   0.2500000E+01  -0.1666667E+01  -0.8333333E+01   0.1595109E+00  -0.6963078E+00   0.1223792E+00  -0.1023086E+00  -0.4557774E-01
   0.5944752E-01
   0.2500000E+01  -0.5555553E+00  -0.7777778E+01   0.1869971E+00  -0.2305066E+00   0.1820512E+00  -0.4272338E-01  -0.8403446E-01
   0.4201723E-01
   0.2500000E+01   0.5555553E+00  -0.7222222E+01   0.2289863E+00   0.2546891E+00   0.2215996E+00   0.5769183E-01  -0.1178330E+00
   0.1248501E-02
   0.2500000E+01   0.1666667E+01  -0.6666667E+01   0.2764707E+00   0.8057259E+00   0.1914802E+00   0.1994276E+00  -0.1335660E+00
  -0.6328164E-01
   0.2500000E+01   0.2777778E+01  -0.6111111E+01   0.3656607E+00   0.1310848E+01   0.9398597E-01   0.3533757E+00  -0.1158814E+00
  -0.1446898E+00
   0.2500000E+01   0.3888889E+01  -0.5555555E+01   0.4915246E+00   0.1727293E+01  -0.7660829E-01   0.4855179E+00  -0.5124587E-01
  -0.2267852E+00
   0.3750000E+01  -0.5000000E+01  -0.1000000E+02   0.6215554E-01   0.6529867E+00   0.4936845E-01   0.3776331E-01  -0.3903831E-01
   0.1972904E-01
   0.3750000E+01  -0.3888889E+01  -0.9444445E+01   0.9126525E-01  -0.1515150E+01   0.5075928E-02  -0.9112399E-01   0.1187364E-01
   0.4611433E-01
   0.3750000E+01  -0.2777778E+01  -0.8888889E+01   0.1146704E+00  -0.1267321E+01   0.3426792E-01  -0.1094304E+00  -0.1192652E-01
   0.5852181E-01
   0.3750000E+01  -0.1666667E+01  -0.8333333E+01   0.1360804E+00  -0.9171961E+00   0.8274351E-01  -0.1080342E+00  -0.4557774E-01
   0.5944753E-01
   0.3750000E+01  -0.5555553E+00  -0.7777778E+01   0.1508213E+00  -0.5289652E+00   0.1302085E+00  -0.7611051E-01  -0.8403446E-01
   0.4201724E-01
   0.3750000E+01   0.5555553E+00  -0.7222222E+01   0.1661104E+00  -0.7275800E-01   0.1656709E+00  -0.1207520E-01  -0.1178330E+00
   0.1248509E-02
   0.3750000E+01   0.1666667E+01  -0.6666667E+01   0.1666313E+00   0.5665894E+00   0.1405929E+00   0.8944061E-01  -0.1335660E+00
  -0.6328164E-01
   0.3750000E+01   0.2777778E+01  -0.6111111E+01   0.2062456E+00   0.1251755E+01   0.6469026E-01   0.1958377E+00  -0.1158814E+00
  -0.1446898E+00