VARIABLES="X" "Y" "Z" "Module" "Phase" "Real" "Imag" "Re(NVEL)" "Im(NVEL)"
 ZONE t="Body",N=         362 , E=         268  , F=FEPOINT,ET=QUADRILATERAL
  -0.5000000E+01  -0.5000000E+01   0.0000000E+00   0.1005956E+01   0.1873820E+01  -0.3001848E+00   0.9601227E+00   0.6675295E-07
  -0.1444418E-07
  -0.5000000E+01  -0.3750000E+01   0.0000000E+00   0.5951465E+00   0.2127824E+01  -0.3146334E+00   0.5051785E+00   0.6636455E-07
   0.2028102E-07
  -0.5000000E+01  -0.2500000E+01   0.0000000E+00   0.2023140E+00   0.2722749E+01  -0.1848259E+00   0.8228195E-01   0.4880560E-07
   0.5088672E-07
  -0.5000000E+01  -0.1250000E+01   0.0000000E+00   0.3004618E+00  -0.1787907E+01  -0.6472218E-01  -0.2934082E+00   0.1806002E-07
   0.6932674E-07
  -0.5000000E+01   0.0000000E+00   0.0000000E+00   0.5986017E+00  -0.1630010E+01  -0.3542489E-01  -0.5975525E+00  -0.1834999E-07
   0.7043977E-07
  -0.5000000E+01   0.1250000E+01   0.0000000E+00   0.7774233E+00  -0.1754359E+01  -0.1419055E+00  -0.7643623E+00  -0.5119429E-07
   0.5337725E-07
  -0.5000000E+01   0.2500000E+01   0.0000000E+00   0.8020756E+00  -0.2098656E+01  -0.4039940E+00  -0.6929027E+00  -0.7186586E-07
   0.2196221E-07
  -0.5000000E+01   0.3750000E+01   0.0000000E+00   0.8505411E+00  -0.2867747E+01  -0.8188482E+00  -0.2300169E+00  -0.7462621E-07
  -0.1614782E-07
  -0.5000000E+01   0.5000000E+01   0.0000000E+00   0.8505411E+00  -0.2867747E+01  -0.8188482E+00  -0.2300169E+00  -0.7462621E-07
  -0.1614782E-07
  -0.5000000E+01  -0.5000000E+01  -0.1250000E+01   0.5565331E+00   0.1932764E+01  -0.1970765E+00   0.5204709E+00   0.4074129E-07
  -0.8815711E-08
  -0.5000000E+01  -0.3750000E+01  -0.1171875E+01   0.3162158E+00   0.2327388E+01  -0.2170654E+00   0.2299458E+00   0.4181528E-07
   0.1277876E-07
  -0.5000000E+01  -0.2500000E+01  -0.1093750E+01   0.1377689E+00  -0.2854685E+01  -0.1321374E+00  -0.3898686E-01   0.3174703E-07
   0.3310075E-07
  -0.5000000E+01  -0.1250000E+01  -0.1015625E+01   0.2968772E+00  -0.1743494E+01  -0.5101565E-01  -0.2924611E+00   0.1212792E-07
   0.4655526E-07
  -0.5000000E+01   0.0000000E+00  -0.9375000E+00   0.5036964E+00  -0.1624194E+01  -0.2688357E-01  -0.5029784E+00  -0.1272151E-07
   0.4883381E-07
  -0.5000000E+01   0.1250000E+01  -0.8593750E+00   0.6190963E+00  -0.1733553E+01  -0.1003179E+00  -0.6109145E+00  -0.3664028E-07
   0.3820264E-07
  -0.5000000E+01   0.2500000E+01  -0.7812500E+00   0.6258385E+00  -0.2059596E+01  -0.2938725E+00  -0.5525512E+00  -0.5309997E-07
   0.1622735E-07
  -0.5000000E+01   0.3750000E+01  -0.7031250E+00   0.6405048E+00  -0.2849656E+01  -0.6134039E+00  -0.1843420E+00  -0.5692430E-07
  -0.1231743E-07
  -0.5000000E+01   0.5000000E+01  -0.6250000E+00   0.6405048E+00  -0.2849656E+01  -0.6134039E+00  -0.1843420E+00  -0.5692430E-07
  -0.1231743E-07
  -0.5000000E+01  -0.5000000E+01  -0.2500000E+01   0.3274567E+00   0.1942508E+01  -0.1189359E+00   0.3050936E+00   0.2486561E-07
  -0.5380488E-08
  -0.5000000E+01  -0.3750000E+01  -0.2343750E+01   0.1819195E+00   0.2413294E+01  -0.1357679E+00   0.1210859E+00   0.2634717E-07
   0.8051702E-08
  -0.5000000E+01  -0.2500000E+01  -0.2187500E+01   0.1012510E+00  -0.2626398E+01  -0.8810824E-01  -0.4988682E-01   0.2065079E-07
   0.2153136E-07
  -0.5000000E+01  -0.1250000E+01  -0.2031250E+01   0.2168008E+00  -0.1734549E+01  -0.3534319E-01  -0.2139006E+00   0.8144312E-08
   0.3126344E-07
  -0.5000000E+01   0.0000000E+00  -0.1875000E+01   0.3688826E+00  -0.1607686E+01  -0.1360486E-01  -0.3686317E+00  -0.8819441E-08
   0.3385503E-07
  -0.5000000E+01   0.1250000E+01  -0.1718750E+01   0.4653906E+00  -0.1703978E+01  -0.6179853E-01  -0.4612693E+00  -0.2622381E-07
   0.2734201E-07
  -0.5000000E+01   0.2500000E+01  -0.1562500E+01   0.4652073E+00  -0.2047827E+01  -0.2135970E+00  -0.4132725E+00  -0.3923431E-07
   0.1199001E-07
  -0.5000000E+01   0.3750000E+01  -0.1406250E+01   0.4854049E+00  -0.2837167E+01  -0.4630856E+00  -0.1454981E+00  -0.4342141E-07
  -0.9395642E-08
  -0.5000000E+01   0.5000000E+01  -0.1250000E+01   0.4854049E+00  -0.2837167E+01  -0.4630856E+00  -0.1454981E+00  -0.4342141E-07
  -0.9395642E-08
  -0.5000000E+01  -0.5000000E+01  -0.3750000E+01   0.1922882E+00   0.1922548E+01  -0.6625150E-01   0.1805146E+00   0.1517622E-07
  -0.3283871E-08
  -0.5000000E+01  -0.3750000E+01  -0.3515625E+01   0.1073964E+00   0.2416032E+01  -0.8034623E-01   0.7126346E-01   0.1660095E-07
   0.5073256E-08
  -0.5000000E+01  -0.2500000E+01  -0.3281250E+01   0.6531072E-01  -0.2513265E+01  -0.5283714E-01  -0.3838915E-01   0.1343291E-07
   0.1400570E-07
  -0.5000000E+01  -0.1250000E+01  -0.3046875E+01   0.1521776E+00  -0.1686458E+01  -0.1756191E-01  -0.1511608E+00   0.5469183E-08
   0.2099447E-07
  -0.5000000E+01   0.0000000E+00  -0.2812500E+01   0.2611936E+00  -0.1571942E+01  -0.2993420E-03  -0.2611934E+00  -0.6114258E-08
   0.2347069E-07
  -0.5000000E+01   0.1250000E+01  -0.2578125E+01   0.3292164E+00  -0.1688744E+01  -0.3874042E-01  -0.3269291E+00  -0.1876865E-07
   0.1956896E-07
  -0.5000000E+01   0.2500000E+01  -0.2343750E+01   0.3429894E+00  -0.2052411E+01  -0.1588764E+00  -0.3039738E+00  -0.2898930E-07
   0.8859131E-08
  -0.5000000E+01   0.3750000E+01  -0.2109375E+01   0.3665937E+00  -0.2827052E+01  -0.3486081E+00  -0.1134167E+00  -0.3312152E-07
  -0.7166922E-08
  -0.5000000E+01   0.5000000E+01  -0.1875000E+01   0.3665937E+00  -0.2827052E+01  -0.3486081E+00  -0.1134167E+00  -0.3312152E-07
  -0.7166922E-08
  -0.5000000E+01  -0.5000000E+01  -0.5000000E+01   0.1115863E+00   0.1883363E+01  -0.3431300E-01   0.1061796E+00   0.9262494E-08
  -0.2004243E-08
  -0.5000000E+01  -0.3750000E+01  -0.4687500E+01   0.6489515E-01   0.2456254E+01  -0.5024211E-01   0.4107445E-01   0.1046001E-07
   0.3196580E-08
  -0.5000000E+01  -0.2500000E+01  -0.4375000E+01   0.3823777E-01  -0.2531098E+01  -0.3133068E-01  -0.2192066E-01   0.8737830E-08
   0.9110420E-08
  -0.5000000E+01  -0.1250000E+01  -0.4062500E+01   0.1024238E+00  -0.1555375E+01   0.1579404E-02  -0.1024116E+00   0.3672742E-08
   0.1409850E-07
  -0.5000000E+01   0.0000000E+00  -0.3750000E+01   0.1752342E+00  -0.1516214E+01   0.9559944E-02  -0.1749732E+00  -0.4238833E-08
   0.1627153E-07
  -0.5000000E+01   0.1250000E+01  -0.3437500E+01   0.2218559E+00  -0.1695963E+01  -0.2769658E-01  -0.2201203E+00  -0.1343291E-07
   0.1400570E-07
  -0.5000000E+01   0.2500000E+01  -0.3125000E+01   0.2482969E+00  -0.2026088E+01  -0.1091821E+00  -0.2230037E+00  -0.2141951E-07
   0.6545802E-08
  -0.5000000E+01   0.3750000E+01  -0.2812500E+01   0.2706127E+00  -0.2845263E+01  -0.2588180E+00  -0.7902202E-01  -0.2526484E-07
  -0.5466873E-08
  -0.5000000E+01   0.5000000E+01  -0.2500000E+01   0.2706127E+00  -0.2845263E+01  -0.2588180E+00  -0.7902202E-01  -0.2526484E-07
  -0.5466873E-08
  -0.5000000E+01  -0.5000000E+01  -0.6250000E+01   0.6955962E-01   0.1907674E+01  -0.2299237E-01   0.6564976E-01   0.5653173E-08
  -0.1223249E-08
  -0.5000000E+01  -0.3750000E+01  -0.5859375E+01   0.3468711E-01   0.2138027E+01  -0.1863733E-01   0.2925484E-01   0.6590690E-08
   0.2014117E-08
  -0.5000000E+01  -0.2500000E+01  -0.5468750E+01   0.1527343E-01  -0.1860563E+01  -0.4364053E-02  -0.1463669E-01   0.5683778E-08
   0.5926140E-08
  -0.5000000E+01  -0.1250000E+01  -0.5078125E+01   0.7138455E-01  -0.1393873E+01   0.1256382E-01  -0.7027023E-01   0.2466372E-08
   0.9467623E-08
  -0.5000000E+01   0.0000000E+00  -0.4687500E+01   0.1106023E+00  -0.1494251E+01   0.8457806E-02  -0.1102784E+00  -0.2938657E-08
   0.1128057E-07
  -0.5000000E+01   0.1250000E+01  -0.4296875E+01   0.1475711E+00  -0.1594815E+01  -0.3544107E-02  -0.1475286E+00  -0.9614070E-08
   0.1002402E-07
  -0.5000000E+01   0.2500000E+01  -0.3906250E+01   0.1627778E+00  -0.2001671E+01  -0.6798676E-01  -0.1479001E+00  -0.1582636E-07
   0.4836537E-08
  -0.5000000E+01   0.3750000E+01  -0.3515625E+01   0.2045580E+00  -0.2901868E+01  -0.1987083E+00  -0.4856931E-01  -0.1927182E-07
  -0.4170088E-08
  -0.5000000E+01   0.5000000E+01  -0.3125000E+01   0.2045580E+00  -0.2901868E+01  -0.1987083E+00  -0.4856931E-01  -0.1927182E-07
  -0.4170088E-08
  -0.5000000E+01  -0.5000000E+01  -0.7500000E+01   0.3568384E-01   0.1738459E+01  -0.5954841E-02   0.3518347E-01   0.3450298E-08
  -0.7465848E-09
  -0.5000000E+01  -0.3750000E+01  -0.7031250E+01   0.1224857E-01   0.2050476E+01  -0.5652659E-02   0.1086623E-01   0.4152692E-08
   0.1269064E-08
  -0.5000000E+01  -0.2500000E+01  -0.6562500E+01   0.1273534E-01  -0.1499177E+01   0.9113178E-03  -0.1270270E-01   0.3697180E-08
   0.3854831E-08
  -0.5000000E+01  -0.1250000E+01  -0.6093750E+01   0.4844238E-01  -0.9864624E+00   0.2672295E-01  -0.4040480E-01   0.1656253E-08
   0.6357832E-08
  -0.5000000E+01   0.0000000E+00  -0.5625000E+01   0.7315294E-01  -0.1127356E+01   0.3138623E-01  -0.6607766E-01  -0.2037283E-08
   0.7820482E-08
  -0.5000000E+01   0.1250000E+01  -0.5156250E+01   0.8931303E-01  -0.1412415E+01   0.1408647E-01  -0.8819517E-01  -0.6880888E-08
   0.7174293E-08
  -0.5000000E+01   0.2500000E+01  -0.4687500E+01   0.9793811E-01  -0.2057361E+01  -0.4579508E-01  -0.8657185E-01  -0.1169373E-07
   0.3573603E-08
  -0.5000000E+01   0.3750000E+01  -0.4218750E+01   0.1423531E+00  -0.3010435E+01  -0.1411305E+00  -0.1861721E-01  -0.1470039E-07
  -0.3180911E-08
  -0.5000000E+01   0.5000000E+01  -0.3750000E+01   0.1423531E+00  -0.3010435E+01  -0.1411305E+00  -0.1861721E-01  -0.1470039E-07
  -0.3180911E-08
  -0.5000000E+01  -0.5000000E+01  -0.8750000E+01   0.1134562E-01   0.2017918E+01  -0.4905526E-02   0.1023030E-01   0.2105819E-08
  -0.4556628E-09
  -0.5000000E+01  -0.3750000E+01  -0.8203125E+01   0.8640524E-02  -0.9775391E+00   0.4830612E-02  -0.7164067E-02   0.2616548E-08
   0.7996177E-09
  -0.5000000E+01  -0.2500000E+01  -0.7656250E+01   0.3374615E-01  -0.8127861E+00   0.2319973E-01  -0.2450663E-01   0.2404939E-08
   0.2507488E-08
  -0.5000000E+01  -0.1250000E+01  -0.7109375E+01   0.5729386E-01  -0.7432228E+00   0.4218499E-01  -0.3876872E-01   0.1112230E-08
   0.4269499E-08
  -0.5000000E+01   0.0000000E+00  -0.6562500E+01   0.6440406E-01  -0.6940482E+00   0.4950501E-01  -0.4119632E-01  -0.1412388E-08
   0.5421709E-08
  -0.5000000E+01   0.1250000E+01  -0.6015625E+01   0.5784539E-01  -0.6162225E+00   0.4720574E-01  -0.3343212E-01  -0.4924721E-08
   0.5134714E-08
  -0.5000000E+01   0.2500000E+01  -0.5468750E+01   0.1954877E-01  -0.1633557E+01  -0.1226081E-02  -0.1951028E-01  -0.8640216E-08
   0.2640450E-08
  -0.5000000E+01   0.3750000E+01  -0.4921875E+01   0.1096434E+00   0.2925363E+01  -0.1070902E+00   0.2352387E-01  -0.1121335E-07
  -0.2426374E-08
  -0.5000000E+01   0.5000000E+01  -0.4375000E+01   0.1096434E+00   0.2925363E+01  -0.1070902E+00   0.2352387E-01  -0.1121335E-07
  -0.2426374E-08
  -0.5000000E+01  -0.5000000E+01  -0.1000000E+02   0.1134562E-01   0.2017918E+01  -0.4905526E-02   0.1023030E-01   0.2105819E-08
  -0.4556628E-09
  -0.5000000E+01  -0.3750000E+01  -0.9375000E+01   0.8640524E-02  -0.9775391E+00   0.4830612E-02  -0.7164067E-02   0.2616548E-08
   0.7996177E-09
  -0.5000000E+01  -0.2500000E+01  -0.8750000E+01   0.3374615E-01  -0.8127861E+00   0.2319973E-01  -0.2450663E-01   0.2404939E-08
   0.2507488E-08
  -0.5000000E+01  -0.1250000E+01  -0.8125000E+01   0.5729386E-01  -0.7432228E+00   0.4218499E-01  -0.3876872E-01   0.1112230E-08
   0.4269499E-08
  -0.5000000E+01   0.0000000E+00  -0.7500000E+01   0.6440406E-01  -0.6940482E+00   0.4950501E-01  -0.4119632E-01  -0.1412388E-08
   0.5421709E-08
  -0.5000000E+01   0.1250000E+01  -0.6875000E+01   0.5784539E-01  -0.6162225E+00   0.4720574E-01  -0.3343212E-01  -0.4924721E-08
   0.5134714E-08
  -0.5000000E+01   0.2500000E+01  -0.6250000E+01   0.1954877E-01  -0.1633557E+01  -0.1226081E-02  -0.1951028E-01  -0.8640216E-08
   0.2640450E-08
  -0.5000000E+01   0.3750000E+01  -0.5625000E+01   0.1096434E+00   0.2925363E+01  -0.1070902E+00   0.2352387E-01  -0.1121335E-07
  -0.2426374E-08
  -0.5000000E+01   0.5000000E+01  -0.5000000E+01   0.1096434E+00   0.2925363E+01  -0.1070902E+00   0.2352387E-01  -0.1121335E-07
  -0.2426374E-08
  -0.5000000E+01   0.5000000E+01  -0.5000000E+01   0.4808958E+00   0.1908481E+01  -0.1593225E+00   0.4537369E+00  -0.2998492E+00
  -0.1515366E+00
  -0.5000000E+01   0.5000000E+01  -0.3750000E+01   0.8093413E+00   0.1917315E+01  -0.2748729E+00   0.7612346E+00  -0.4991784E+00
  -0.2522728E+00
  -0.5000000E+01   0.5000000E+01  -0.2500000E+01   0.1371113E+01   0.1923475E+01  -0.4736001E+00   0.1286722E+01  -0.8310146E+00
  -0.4199750E+00
  -0.5000000E+01   0.5000000E+01  -0.1250000E+01   0.2319415E+01   0.1943393E+01  -0.8443494E+00   0.2160269E+01  -0.1383444E+01
  -0.6991596E+00
  -0.5000000E+01   0.5000000E+01   0.0000000E+00   0.2319415E+01   0.1943393E+01  -0.8443494E+00   0.2160269E+01  -0.1383444E+01
  -0.6991596E+00
  -0.3750000E+01   0.5000000E+01  -0.5000000E+01   0.8303860E+00   0.1868937E+01  -0.2439204E+00   0.7937529E+00  -0.2998492E+00
  -0.1515366E+00
  -0.3750000E+01   0.5000000E+01  -0.3750000E+01   0.1457721E+01   0.1868389E+01  -0.4274324E+00   0.1393648E+01  -0.4991784E+00
  -0.2522728E+00
  -0.3750000E+01   0.5000000E+01  -0.2500000E+01   0.2478530E+01   0.1870339E+01  -0.7313728E+00   0.2368165E+01  -0.8310146E+00
  -0.4199750E+00
  -0.3750000E+01   0.5000000E+01  -0.1250000E+01   0.4222064E+01   0.1879155E+01  -0.1281375E+01   0.4022922E+01  -0.1383444E+01
  -0.6991596E+00
  -0.3750000E+01   0.5000000E+01   0.0000000E+00   0.4222064E+01   0.1879155E+01  -0.1281375E+01   0.4022922E+01  -0.1383444E+01
  -0.6991596E+00
  -0.2500000E+01   0.5000000E+01  -0.5000000E+01   0.1065564E+01   0.1892946E+01  -0.3373643E+00   0.1010748E+01  -0.2998492E+00
  -0.1515366E+00
  -0.2500000E+01   0.5000000E+01  -0.3750000E+01   0.1906803E+01   0.1888408E+01  -0.5954919E+00   0.1811432E+01  -0.4991784E+00
  -0.2522728E+00
  -0.2500000E+01   0.5000000E+01  -0.2500000E+01   0.3250178E+01   0.1888110E+01  -0.1014105E+01   0.3087919E+01  -0.8310146E+00
  -0.4199750E+00
  -0.2500000E+01   0.5000000E+01  -0.1250000E+01   0.5564410E+01   0.1890926E+01  -0.1751061E+01   0.5281709E+01  -0.1383444E+01
  -0.6991596E+00
  -0.2500000E+01   0.5000000E+01   0.0000000E+00   0.5564410E+01   0.1890926E+01  -0.1751061E+01   0.5281709E+01  -0.1383444E+01
  -0.6991596E+00
  -0.1250000E+01   0.5000000E+01  -0.5000000E+01   0.1185685E+01   0.1907024E+01  -0.3911910E+00   0.1119293E+01  -0.2998492E+00
  -0.1515366E+00
  -0.1250000E+01   0.5000000E+01  -0.3750000E+01   0.2138710E+01   0.1900271E+01  -0.6919702E+00   0.2023674E+01  -0.4991784E+00
  -0.2522728E+00
  -0.1250000E+01   0.5000000E+01  -0.2500000E+01   0.3648699E+01   0.1898958E+01  -0.1175989E+01   0.3453991E+01  -0.8310146E+00
  -0.4199750E+00
  -0.1250000E+01   0.5000000E+01  -0.1250000E+01   0.6258912E+01   0.1899482E+01  -0.2020373E+01   0.5923856E+01  -0.1383444E+01
  -0.6991596E+00
  -0.1250000E+01   0.5000000E+01   0.0000000E+00   0.6258912E+01   0.1899482E+01  -0.2020373E+01   0.5923856E+01  -0.1383444E+01
  -0.6991596E+00
   0.0000000E+00   0.5000000E+01  -0.5000000E+01   0.1185685E+01   0.1907024E+01  -0.3911910E+00   0.1119293E+01  -0.2998492E+00
  -0.1515366E+00
   0.0000000E+00   0.5000000E+01  -0.3750000E+01   0.2138710E+01   0.1900271E+01  -0.6919702E+00   0.2023674E+01  -0.4991784E+00
  -0.2522728E+00
   0.0000000E+00   0.5000000E+01  -0.2500000E+01   0.3648699E+01   0.1898958E+01  -0.1175989E+01   0.3453991E+01  -0.8310146E+00
  -0.4199750E+00
   0.0000000E+00   0.5000000E+01  -0.1250000E+01   0.6258912E+01   0.1899482E+01  -0.2020373E+01   0.5923856E+01  -0.1383444E+01
  -0.6991596E+00
   0.0000000E+00   0.5000000E+01   0.0000000E+00   0.6258912E+01   0.1899482E+01  -0.2020373E+01   0.5923856E+01  -0.1383444E+01
  -0.6991596E+00
   0.0000000E+00   0.5000000E+01  -0.5000000E+01   0.1175204E+01   0.1905507E+01  -0.3860500E+00   0.1109987E+01  -0.2998492E+00
  -0.1515366E+00
   0.0000000E+00   0.5000000E+01  -0.3750000E+01   0.2120916E+01   0.1897931E+01  -0.6815159E+00   0.2008437E+01  -0.4991784E+00
  -0.2522728E+00
   0.0000000E+00   0.5000000E+01  -0.2500000E+01   0.3618108E+01   0.1896412E+01  -0.1157404E+01   0.3427990E+01  -0.8310146E+00
  -0.4199750E+00
   0.0000000E+00   0.5000000E+01  -0.1250000E+01   0.6210286E+01   0.1897216E+01  -0.1991354E+01   0.5882360E+01  -0.1383444E+01
  -0.6991596E+00
   0.0000000E+00   0.5000000E+01   0.0000000E+00   0.6210286E+01   0.1897216E+01  -0.1991354E+01   0.5882360E+01  -0.1383444E+01
  -0.6991596E+00
   0.1250000E+01   0.5000000E+01  -0.5000000E+01   0.1035779E+01   0.1888408E+01  -0.3234725E+00   0.9839738E+00  -0.2998492E+00
  -0.1515366E+00
   0.1250000E+01   0.5000000E+01  -0.3750000E+01   0.1858458E+01   0.1881029E+01  -0.5673497E+00   0.1769740E+01  -0.4991784E+00
  -0.2522728E+00
   0.1250000E+01   0.5000000E+01  -0.2500000E+01   0.3166241E+01   0.1880140E+01  -0.9639091E+00   0.3015951E+01  -0.8310146E+00
  -0.4199750E+00
   0.1250000E+01   0.5000000E+01  -0.1250000E+01   0.5426316E+01   0.1884207E+01  -0.1672959E+01   0.5161987E+01  -0.1383444E+01
  -0.6991596E+00
   0.1250000E+01   0.5000000E+01   0.0000000E+00   0.5426316E+01   0.1884207E+01  -0.1672959E+01   0.5161987E+01  -0.1383444E+01
  -0.6991596E+00
   0.2500000E+01   0.5000000E+01  -0.5000000E+01   0.7855362E+00   0.1863415E+01  -0.2265960E+00   0.7521445E+00  -0.2998492E+00
  -0.1515366E+00
   0.2500000E+01   0.5000000E+01  -0.3750000E+01   0.1387823E+01   0.1857444E+01  -0.3923911E+00   0.1331196E+01  -0.4991784E+00
  -0.2522728E+00
   0.2500000E+01   0.5000000E+01  -0.2500000E+01   0.2356755E+01   0.1858222E+01  -0.6681045E+00   0.2260074E+01  -0.8310146E+00
  -0.4199750E+00
   0.2500000E+01   0.5000000E+01  -0.1250000E+01   0.4017019E+01   0.1870137E+01  -0.1184579E+01   0.3838387E+01  -0.1383444E+01
  -0.6991596E+00
   0.2500000E+01   0.5000000E+01   0.0000000E+00   0.4017019E+01   0.1870137E+01  -0.1184579E+01   0.3838387E+01  -0.1383444E+01
  -0.6991596E+00
   0.3750000E+01   0.5000000E+01  -0.5000000E+01   0.4254445E+00   0.1933092E+01  -0.1507870E+00   0.3978270E+00  -0.2998492E+00
  -0.1515366E+00
   0.3750000E+01   0.5000000E+01  -0.3750000E+01   0.7283700E+00   0.1929838E+01  -0.2559327E+00   0.6819246E+00  -0.4991784E+00
  -0.2522728E+00
   0.3750000E+01   0.5000000E+01  -0.2500000E+01   0.1233721E+01   0.1932295E+01  -0.4363380E+00   0.1153983E+01  -0.8310146E+00
  -0.4199750E+00
   0.3750000E+01   0.5000000E+01  -0.1250000E+01   0.2106764E+01   0.1955957E+01  -0.7915274E+00   0.1952418E+01  -0.1383444E+01
  -0.6991596E+00
   0.3750000E+01   0.5000000E+01   0.0000000E+00   0.2106764E+01   0.1955957E+01  -0.7915274E+00   0.1952418E+01  -0.1383444E+01
  -0.6991596E+00
   0.5000000E+01   0.5000000E+01  -0.5000000E+01   0.4254445E+00   0.1933092E+01  -0.1507870E+00   0.3978270E+00  -0.2998492E+00
  -0.1515366E+00
   0.5000000E+01   0.5000000E+01  -0.3750000E+01   0.7283700E+00   0.1929838E+01  -0.2559327E+00   0.6819246E+00  -0.4991784E+00
  -0.2522728E+00
   0.5000000E+01   0.5000000E+01  -0.2500000E+01   0.1233721E+01   0.1932295E+01  -0.4363380E+00   0.1153983E+01  -0.8310146E+00
  -0.4199750E+00
   0.5000000E+01   0.5000000E+01  -0.1250000E+01   0.2106764E+01   0.1955957E+01  -0.7915274E+00   0.1952418E+01  -0.1383444E+01
  -0.6991596E+00
   0.5000000E+01   0.5000000E+01   0.0000000E+00   0.2106764E+01   0.1955957E+01  -0.7915274E+00   0.1952418E+01  -0.1383444E+01
  -0.6991596E+00
   0.5000000E+01   0.5000000E+01  -0.5000000E+01   0.1721431E+00  -0.2826874E+01  -0.1636880E+00  -0.5328679E-01   0.1291422E-07
   0.3179675E-08
   0.5000000E+01   0.5000000E+01  -0.3750000E+01   0.3256894E+00  -0.2719452E+01  -0.2970984E+00  -0.1334396E+00   0.2211661E-07
   0.5445441E-08
   0.5000000E+01   0.5000000E+01  -0.2500000E+01   0.5669100E+00  -0.2759033E+01  -0.5259293E+00  -0.2116255E+00   0.3787641E-07
   0.9325742E-08
   0.5000000E+01   0.5000000E+01  -0.1250000E+01   0.9491800E+00  -0.2911701E+01  -0.9242080E+00  -0.2162919E+00   0.6486630E-07
   0.1597106E-07
   0.5000000E+01   0.5000000E+01   0.0000000E+00   0.9491800E+00  -0.2911701E+01  -0.9242080E+00  -0.2162919E+00   0.6486630E-07
   0.1597106E-07
   0.5000000E+01   0.3888889E+01  -0.5555555E+01   0.1441280E+00  -0.2178539E+01  -0.8229932E-01  -0.1183203E+00   0.1066515E-07
  -0.2291482E-08
   0.5000000E+01   0.3888889E+01  -0.4166667E+01   0.3405586E+00  -0.2255032E+01  -0.2152606E+00  -0.2638997E+00   0.1932912E-07
  -0.4152995E-08
   0.5000000E+01   0.3888889E+01  -0.2777778E+01   0.5864058E+00  -0.2374936E+01  -0.4223495E+00  -0.4068078E+00   0.3503137E-07
  -0.7526732E-08
   0.5000000E+01   0.3888889E+01  -0.1388889E+01   0.9335479E+00  -0.2575756E+01  -0.7880453E+00  -0.5004959E+00   0.6348955E-07
  -0.1364117E-07
   0.5000000E+01   0.3888889E+01   0.0000000E+00   0.9335479E+00  -0.2575756E+01  -0.7880453E+00  -0.5004959E+00   0.6348955E-07
  -0.1364117E-07
   0.5000000E+01   0.2777778E+01  -0.6111111E+01   0.1344761E+00  -0.1928534E+01  -0.4708764E-01  -0.1259626E+00   0.7042372E-08
  -0.5518755E-08
   0.5000000E+01   0.2777778E+01  -0.4583333E+01   0.3110895E+00  -0.2177344E+01  -0.1773316E+00  -0.2555977E+00   0.1350700E-07
  -0.1058476E-07
   0.5000000E+01   0.2777778E+01  -0.3055556E+01   0.5482929E+00  -0.2261688E+01  -0.3493857E+00  -0.4225574E+00   0.2590590E-07
  -0.2030116E-07
   0.5000000E+01   0.2777778E+01  -0.1527778E+01   0.8374612E+00  -0.2551931E+01  -0.6960382E+00  -0.4656953E+00   0.4968651E-07
  -0.3893683E-07
   0.5000000E+01   0.2777778E+01   0.0000000E+00   0.8374612E+00  -0.2551931E+01  -0.6960382E+00  -0.4656953E+00   0.4968651E-07
  -0.3893683E-07
   0.5000000E+01   0.1666667E+01  -0.6666667E+01   0.1164290E+00  -0.1835411E+01  -0.3045053E-01  -0.1123765E+00   0.3212121E-08
  -0.6598102E-08
   0.5000000E+01   0.1666667E+01  -0.5000000E+01   0.2561045E+00  -0.2174446E+01  -0.1453780E+00  -0.2108430E+00   0.6519683E-08
  -0.1339225E-07
   0.5000000E+01   0.1666667E+01  -0.3333333E+01   0.4708144E+00  -0.2319320E+01  -0.3204165E+00  -0.3449630E+00   0.1323308E-07
  -0.2718242E-07
   0.5000000E+01   0.1666667E+01  -0.1666667E+01   0.7082951E+00  -0.2725827E+01  -0.6479535E+00  -0.2860738E+00   0.2685936E-07
  -0.5517251E-07
   0.5000000E+01   0.1666667E+01   0.0000000E+00   0.7082951E+00  -0.2725827E+01  -0.6479535E+00  -0.2860738E+00   0.2685936E-07
  -0.5517251E-07
   0.5000000E+01   0.5555553E+00  -0.7222222E+01   0.1059716E+00  -0.1670345E+01  -0.1053195E-01  -0.1054469E+00  -0.5363859E-15
  -0.6018965E-08
   0.5000000E+01   0.5555553E+00  -0.5416667E+01   0.2092258E+00  -0.2171045E+01  -0.1181808E+00  -0.1726520E+00  -0.1152144E-14
  -0.1292859E-07
   0.5000000E+01   0.5555553E+00  -0.3611111E+01   0.3850246E+00  -0.2490934E+01  -0.3063584E+00  -0.2332134E+00  -0.2474777E-14
  -0.2777030E-07
   0.5000000E+01   0.5555553E+00  -0.1805555E+01   0.6315089E+00  -0.3076007E+01  -0.6301512E+00  -0.4138820E-01  -0.5315760E-14
  -0.5964992E-07
   0.5000000E+01   0.5555553E+00   0.0000000E+00   0.6315089E+00  -0.3076007E+01  -0.6301512E+00  -0.4138820E-01  -0.5315760E-14
  -0.5964992E-07
   0.5000000E+01  -0.5555553E+00  -0.7777778E+01   0.8811326E-01  -0.1745605E+01  -0.1532467E-01  -0.8677039E-01  -0.2160870E-08
  -0.4438698E-08
   0.5000000E+01  -0.5555553E+00  -0.5833333E+01   0.1637229E+00  -0.2306037E+01  -0.1098197E+00  -0.1214283E+00  -0.4911936E-08
  -0.1008973E-07
   0.5000000E+01  -0.5555553E+00  -0.3888889E+01   0.3174805E+00  -0.2736927E+01  -0.2918388E+00  -0.1249958E+00  -0.1116547E-07
  -0.2293526E-07
   0.5000000E+01  -0.5555553E+00  -0.1944445E+01   0.6626334E+00   0.2792859E+01  -0.6227469E+00   0.2264272E+00  -0.2538055E-07
  -0.5213481E-07
   0.5000000E+01  -0.5555553E+00   0.0000000E+00   0.6626334E+00   0.2792859E+01  -0.6227469E+00   0.2264272E+00  -0.2538055E-07
  -0.5213481E-07
   0.5000000E+01  -0.1666667E+01  -0.8333333E+01   0.6659414E-01  -0.2009835E+01  -0.2830715E-01  -0.6027839E-01  -0.3187075E-08
  -0.2497551E-08
   0.5000000E+01  -0.1666667E+01  -0.6250000E+01   0.1292309E+00  -0.2698115E+01  -0.1167298E+00  -0.5545080E-01  -0.7666747E-08
  -0.6008046E-08
   0.5000000E+01  -0.1666667E+01  -0.4166667E+01   0.2790458E+00  -0.3045995E+01  -0.2777717E+00  -0.2663559E-01  -0.1844294E-07
  -0.1445281E-07
   0.5000000E+01  -0.1666667E+01  -0.2083333E+01   0.7567802E+00   0.2497937E+01  -0.6053541E+00   0.4541615E+00  -0.4436586E-07
  -0.3476731E-07
   0.5000000E+01  -0.1666667E+01   0.0000000E+00   0.7567802E+00   0.2497937E+01  -0.6053541E+00   0.4541615E+00  -0.4436586E-07
  -0.3476731E-07
   0.5000000E+01  -0.2777778E+01  -0.8888889E+01   0.4579213E-01  -0.2356870E+01  -0.3240179E-01  -0.3235804E-01  -0.3246959E-08
  -0.6976307E-09
   0.5000000E+01  -0.2777778E+01  -0.6666667E+01   0.1045340E+00  -0.3132611E+01  -0.1045298E+00  -0.9388383E-03  -0.8265910E-08
  -0.1775985E-08
   0.5000000E+01  -0.2777778E+01  -0.4444445E+01   0.2687532E+00   0.2811721E+01  -0.2542631E+00   0.8705500E-01  -0.2104284E-07
  -0.4521192E-08
   0.5000000E+01  -0.2777778E+01  -0.2222222E+01   0.8387496E+00   0.2292270E+01  -0.5539873E+00   0.6297610E+00  -0.5356955E-07
  -0.1150977E-07
   0.5000000E+01  -0.2777778E+01   0.0000000E+00   0.8387496E+00   0.2292270E+01  -0.5539873E+00   0.6297610E+00  -0.5356955E-07
  -0.1150977E-07
   0.5000000E+01  -0.3888889E+01  -0.9444445E+01   0.2391445E-01  -0.2848306E+01  -0.2289328E-01  -0.6913671E-02  -0.2644933E-08
   0.6512222E-09
   0.5000000E+01  -0.3888889E+01  -0.7083333E+01   0.7976948E-01   0.2543901E+01  -0.6594039E-01   0.4488912E-01  -0.7125629E-08
   0.1754437E-08
   0.5000000E+01  -0.3888889E+01  -0.4722222E+01   0.2669711E+00   0.2291935E+01  -0.1762652E+00   0.2005097E+00  -0.1919692E-07
   0.4726570E-08
   0.5000000E+01  -0.3888889E+01  -0.2361111E+01   0.8780417E+00   0.2033312E+01  -0.3917831E+00   0.7857882E+00  -0.5171781E-07
   0.1273370E-07
   0.5000000E+01  -0.3888889E+01   0.0000000E+00   0.8780417E+00   0.2033312E+01  -0.3917831E+00   0.7857882E+00  -0.5171781E-07
   0.1273370E-07
   0.5000000E+01  -0.5000000E+01  -0.1000000E+02   0.2391445E-01  -0.2848306E+01  -0.2289328E-01  -0.6913671E-02  -0.2644933E-08
   0.6512222E-09
   0.5000000E+01  -0.5000000E+01  -0.7500000E+01   0.7976948E-01   0.2543901E+01  -0.6594039E-01   0.4488912E-01  -0.7125629E-08
   0.1754437E-08
   0.5000000E+01  -0.5000000E+01  -0.5000000E+01   0.2669711E+00   0.2291935E+01  -0.1762652E+00   0.2005097E+00  -0.1919692E-07
   0.4726570E-08
   0.5000000E+01  -0.5000000E+01  -0.2500000E+01   0.8780417E+00   0.2033312E+01  -0.3917831E+00   0.7857882E+00  -0.5171781E-07
   0.1273370E-07
   0.5000000E+01  -0.5000000E+01   0.0000000E+00   0.8780417E+00   0.2033312E+01  -0.3917831E+00   0.7857882E+00  -0.5171781E-07
   0.1273370E-07
   0.0000000E+00  -0.5000000E+01  -0.1000000E+02   0.4491504E-01  -0.1409008E+01   0.7235081E-02  -0.4432848E-01   0.2460508E-01
   0.2891394E-01
   0.0000000E+00  -0.3888889E+01  -0.9444445E+01   0.1015699E+00  -0.1285669E+01   0.2856953E-01  -0.9746908E-01   0.1187362E-01
   0.4611436E-01
   0.0000000E+00  -0.2777778E+01  -0.8888889E+01   0.1425720E+00  -0.9709904E+00   0.8047938E-01  -0.1176854E+00  -0.1192655E-01
   0.5852184E-01
   0.0000000E+00  -0.1666667E+01  -0.8333333E+01   0.1761813E+00  -0.5603653E+00   0.1492363E+00  -0.9363957E-01  -0.4557776E-01
   0.5944755E-01
   0.0000000E+00  -0.5555553E+00  -0.7777778E+01   0.2143852E+00  -0.5270060E-01   0.2140875E+00  -0.1129300E-01  -0.8403449E-01
   0.4201725E-01
   0.0000000E+00   0.5555553E+00  -0.7222222E+01   0.2729796E+00   0.4412582E+00   0.2468323E+00   0.1165834E+00  -0.1178331E+00
   0.1248505E-02
   0.0000000E+00   0.1666667E+01  -0.6666667E+01   0.3506075E+00   0.9189868E+00   0.2126876E+00   0.2787285E+00  -0.1335660E+00
  -0.6328165E-01
   0.0000000E+00   0.2777778E+01  -0.6111111E+01   0.4796663E+00   0.1374852E+01   0.9338763E-01   0.4704875E+00  -0.1158815E+00
  -0.1446899E+00
   0.0000000E+00   0.3888889E+01  -0.5555555E+01   0.6595358E+00   0.1765707E+01  -0.1277385E+00   0.6470475E+00  -0.5124593E-01
  -0.2267853E+00
   0.0000000E+00   0.5000000E+01  -0.5000000E+01   0.6595358E+00   0.1765707E+01  -0.1277385E+00   0.6470475E+00  -0.5124593E-01
  -0.2267853E+00
   0.1250000E+01  -0.5000000E+01  -0.1000000E+02   0.4721100E-01  -0.1497554E+01   0.3454750E-02  -0.4708442E-01   0.2460508E-01
   0.2891394E-01
   0.1250000E+01  -0.3888889E+01  -0.9444445E+01   0.1032001E+00  -0.1319911E+01   0.2562066E-01  -0.9996925E-01   0.1187362E-01
   0.4611436E-01
   0.1250000E+01  -0.2777778E+01  -0.8888889E+01   0.1395706E+00  -0.1015991E+01   0.7352266E-01  -0.1186354E+00  -0.1192655E-01
   0.5852184E-01
   0.1250000E+01  -0.1666667E+01  -0.8333333E+01   0.1712369E+00  -0.6067154E+00   0.1406754E+00  -0.9763450E-01  -0.4557776E-01
   0.5944755E-01
   0.1250000E+01  -0.5555553E+00  -0.7777778E+01   0.2055559E+00  -0.1109307E+00   0.2042924E+00  -0.2275571E-01  -0.8403449E-01
   0.4201725E-01
   0.1250000E+01   0.5555553E+00  -0.7222222E+01   0.2597189E+00   0.3792589E+00   0.2412630E+00   0.9615627E-01  -0.1178331E+00
   0.1248516E-02
   0.1250000E+01   0.1666667E+01  -0.6666667E+01   0.3267345E+00   0.8832726E+00   0.2073540E+00   0.2525069E+00  -0.1335660E+00
  -0.6328165E-01
   0.1250000E+01   0.2777778E+01  -0.6111111E+01   0.4422031E+00   0.1352359E+01   0.9582725E-01   0.4316951E+00  -0.1158815E+00
  -0.1446899E+00
   0.1250000E+01   0.3888889E+01  -0.5555555E+01   0.6011504E+00   0.1748073E+01  -0.1060127E+00   0.5917289E+00  -0.5124593E-01
  -0.2267853E+00
   0.1250000E+01   0.5000000E+01  -0.5000000E+01   0.6011504E+00   0.1748073E+01  -0.1060127E+00   0.5917289E+00  -0.5124593E-01
  -0.2267853E+00