VARIABLES="w (rad/s)"
"A   1   1" "B   1   1"
"A   1   2" "B   1   2"
"A   1   3" "B   1   3"
"A   1   4" "B   1   4"
"A   1   5" "B   1   5"
"A   1   6" "B   1   6"
Zone t="Motion of body    1 in DoF   7",I=    40,F=POINT
  0.5000000E-01  0.5627049E+06  0.3486578E-03 -0.7664371E+03  0.7967930E-04  0.1258568E+04  0.1893671E+00 -0.2269685E+04  0.5120789E-03 -0.4068487E+06 -0.1134662E-03  0.2492834E+06 -0.6204192E-04
  0.9999999E-01  0.5647000E+06  0.4591693E-01 -0.7702701E+03  0.2298284E-02  0.1278885E+04  0.1478089E+01 -0.2325425E+04  0.1532319E-01 -0.4073125E+06 -0.2071845E-01  0.2516724E+06  0.2080552E-01
  0.1500000E+00  0.5700262E+06  0.7900432E+00 -0.8775575E+03  0.1554988E-01  0.1284355E+04  0.4787678E+01 -0.2504746E+04  0.1092261E+00 -0.4095873E+06 -0.3707969E+00  0.2537592E+06  0.3871367E+00
  0.2000000E+00  0.5738179E+06  0.5864196E+01 -0.8531548E+03  0.5502233E-01  0.1291421E+04  0.1070382E+02 -0.2541482E+04  0.4241157E+00 -0.4097521E+06 -0.2752260E+01  0.2549506E+06  0.2887626E+01
  0.2500000E+00  0.5779619E+06  0.2763572E+02 -0.8401489E+03  0.1280238E+00  0.1297354E+04  0.1939709E+02 -0.2478917E+04  0.1164019E+01 -0.4103358E+06 -0.1290356E+02  0.2565805E+06  0.1351868E+02
  0.3000000E+00  0.5832946E+06  0.9762149E+02 -0.8461091E+03  0.2076365E+00  0.1288314E+04  0.3059428E+02 -0.2452708E+04  0.2523795E+01 -0.4104620E+06 -0.4517306E+02  0.2575658E+06  0.4717428E+02
  0.3500000E+00  0.5906060E+06  0.2826112E+03 -0.8833123E+03  0.1638265E+00  0.1281061E+04  0.4368399E+02 -0.2557454E+04  0.4552028E+01 -0.4100059E+06 -0.1289928E+03  0.2591333E+06  0.1344171E+03
  0.4000001E+00  0.5980753E+06  0.7059497E+03 -0.8756187E+03 -0.2628531E+00  0.1268805E+04  0.5762039E+02 -0.2485349E+04  0.7079852E+01 -0.4129595E+06 -0.3190926E+03  0.2617894E+06  0.3304463E+03
  0.4499998E+00  0.6084988E+06  0.1578284E+04 -0.8951715E+03 -0.1614592E+01  0.1259758E+04  0.7193572E+02 -0.2554283E+04  0.9381788E+01 -0.4134305E+06 -0.7006953E+03  0.2644012E+06  0.7238542E+03
  0.5000001E+00  0.6196184E+06  0.3225146E+04 -0.9456505E+03 -0.4788292E+01  0.1242961E+04  0.8567437E+02 -0.2641871E+04  0.1032674E+02 -0.4172521E+06 -0.1410944E+04  0.2679246E+06  0.1448335E+04
  0.5500002E+00  0.6344075E+06  0.6141667E+04 -0.9852034E+03 -0.1112899E+02  0.1227026E+04  0.9885111E+02 -0.2673921E+04  0.8084290E+01 -0.4177107E+06 -0.2619657E+04  0.2712129E+06  0.2687047E+04
  0.5999997E+00  0.6496508E+06  0.1100078E+05 -0.9785636E+03 -0.2220126E+02  0.1224840E+04  0.1107384E+03 -0.2697687E+04 -0.4932556E+00 -0.4223111E+06 -0.4598444E+04  0.2761687E+06  0.4694737E+04
  0.6500000E+00  0.6681839E+06  0.1873544E+05 -0.1045317E+04 -0.4098206E+02  0.1213490E+04  0.1238101E+03 -0.2710455E+04 -0.1426529E+02 -0.4239752E+06 -0.7591141E+04  0.2803163E+06  0.7757202E+04
  0.6999999E+00  0.6882036E+06  0.3053952E+05 -0.1052409E+04 -0.7019772E+02  0.1223360E+04  0.1383052E+03 -0.2787833E+04 -0.4720142E+02 -0.4257042E+06 -0.1196226E+05  0.2850758E+06  0.1224935E+05
  0.7500000E+00  0.7078326E+06  0.4779453E+05 -0.1121391E+04 -0.1138542E+03  0.1216921E+04  0.1584490E+03 -0.2840232E+04 -0.8614404E+02 -0.4287863E+06 -0.1809947E+05  0.2892288E+06  0.1853812E+05
  0.8000000E+00  0.7278943E+06  0.7208373E+05 -0.1130428E+04 -0.1764294E+03  0.1237122E+04  0.1827148E+03 -0.2967107E+04 -0.1720616E+03 -0.4292837E+06 -0.2613024E+05  0.2932133E+06  0.2699265E+05
  0.8500000E+00  0.7464776E+06  0.1050853E+06 -0.1189914E+04 -0.2608970E+03  0.1228284E+04  0.2189503E+03 -0.2991525E+04 -0.2568159E+03 -0.4257290E+06 -0.3608120E+05  0.2943622E+06  0.3774901E+05
  0.8999999E+00  0.7597893E+06  0.1480775E+06 -0.1175275E+04 -0.3628967E+03  0.1235456E+04  0.2664035E+03 -0.3060683E+04 -0.3804739E+03 -0.4217213E+06 -0.4812290E+05  0.2945045E+06  0.5105986E+05
  0.9499999E+00  0.7651485E+06  0.2014373E+06 -0.1128571E+04 -0.4795659E+03  0.1215903E+04  0.3159923E+03 -0.3033052E+04 -0.5087202E+03 -0.4156435E+06 -0.6163782E+05  0.2917144E+06  0.6653271E+05
  0.9999999E+00  0.7610544E+06  0.2642808E+06 -0.1099943E+04 -0.6051765E+03  0.1189859E+04  0.3783376E+03 -0.3007868E+04 -0.6361902E+03 -0.4044996E+06 -0.7494155E+05  0.2853783E+06  0.8333393E+05
  0.1050000E+01  0.7459425E+06  0.3345649E+06 -0.1007496E+04 -0.7344082E+03  0.1163741E+04  0.4488446E+03 -0.3042104E+04 -0.9036050E+03 -0.3887265E+06 -0.8653642E+05  0.2757218E+06  0.1003981E+06
  0.1100000E+01  0.7176279E+06  0.4082491E+06 -0.9028258E+03 -0.8412505E+03  0.1100312E+04  0.4961365E+03 -0.3008491E+04 -0.1077036E+04 -0.3709073E+06 -0.9512268E+05  0.2626983E+06  0.1162541E+06
  0.1150000E+01  0.6775179E+06  0.4801044E+06 -0.8069562E+03 -0.9048730E+03  0.1035048E+04  0.5436938E+03 -0.2852035E+04 -0.1174718E+04 -0.3516097E+06 -0.9863336E+05  0.2475177E+06  0.1294459E+06
  0.1200000E+01  0.6286312E+06  0.5453661E+06 -0.6837091E+03 -0.9545762E+03  0.9723194E+03  0.5719143E+03 -0.2845001E+04 -0.1564950E+04 -0.3320112E+06 -0.9581098E+05  0.2314858E+06  0.1388932E+06
  0.1250000E+01  0.5735414E+06  0.5997946E+06 -0.5530107E+03 -0.9362295E+03  0.9162823E+03  0.5659741E+03 -0.2652660E+04 -0.1706440E+04 -0.3142098E+06 -0.8667577E+05  0.2154494E+06  0.1438491E+06
  0.1300000E+01  0.5167592E+06  0.6409832E+06 -0.5292667E+03 -0.1006592E+04  0.8476822E+03  0.5490435E+03 -0.2611467E+04 -0.2161133E+04 -0.2994083E+06 -0.7133990E+05  0.2001904E+06  0.1439621E+06
  0.1350000E+01  0.4615541E+06  0.6686064E+06 -0.4652817E+03 -0.9529634E+03  0.8004306E+03  0.5149594E+03 -0.2456713E+04 -0.2247473E+04 -0.2885048E+06 -0.5155142E+05  0.1875521E+06  0.1406782E+06
  0.1400000E+01  0.4102869E+06  0.6834326E+06 -0.3829384E+03 -0.9121338E+03  0.7797858E+03  0.4677403E+03 -0.2099643E+04 -0.2455506E+04 -0.2815950E+06 -0.2826406E+05  0.1775116E+06  0.1345793E+06
  0.1450000E+01  0.3647830E+06  0.6875474E+06 -0.3271693E+03 -0.8453115E+03  0.7678641E+03  0.4082071E+03 -0.1858343E+04 -0.2518739E+04 -0.2782288E+06 -0.2405126E+04  0.1696559E+06  0.1259926E+06
  0.1500000E+01  0.3251072E+06  0.6826994E+06 -0.3119787E+03 -0.9193735E+03  0.7550187E+03  0.3484013E+03 -0.1601238E+04 -0.2848092E+04 -0.2781993E+06  0.2421015E+05  0.1637473E+06  0.1158831E+06
  0.1550000E+01  0.2915646E+06  0.6715565E+06 -0.2910004E+03 -0.8478237E+03  0.7560822E+03  0.2928851E+03 -0.1437374E+04 -0.2626428E+04 -0.2809847E+06  0.5103950E+05  0.1601500E+06  0.1056942E+06
  0.1600000E+01  0.2634983E+06  0.6554358E+06 -0.2464987E+03 -0.7786060E+03  0.7764345E+03  0.2613185E+03 -0.1070017E+04 -0.2334688E+04 -0.2860553E+06  0.7680503E+05  0.1582658E+06  0.9589527E+05
  0.1650000E+01  0.2402853E+06  0.6364337E+06 -0.2297429E+03 -0.6772744E+03  0.7964670E+03  0.2331006E+03 -0.8918474E+03 -0.1949372E+04 -0.2929964E+06  0.1017479E+06  0.1575519E+06  0.8627580E+05
  0.1700000E+01  0.2212034E+06  0.6151980E+06 -0.2228513E+03 -0.7086484E+03  0.8157456E+03  0.1872601E+03 -0.8665046E+03 -0.1799229E+04 -0.3011855E+06  0.1252183E+06  0.1573662E+06  0.7644193E+05
  0.1750000E+01  0.2055025E+06  0.5928022E+06 -0.2270918E+03 -0.6762539E+03  0.8218312E+03  0.1560524E+03 -0.9079387E+03 -0.1245201E+04 -0.3103728E+06  0.1470978E+06  0.1579562E+06  0.6803365E+05
  0.1800000E+01  0.1925582E+06  0.5696820E+06 -0.2192154E+03 -0.6490327E+03  0.8425584E+03  0.1410007E+03 -0.9777736E+03 -0.1179237E+04 -0.3203478E+06  0.1670515E+06  0.1590602E+06  0.6056059E+05
  0.1850000E+01  0.1817805E+06  0.5456549E+06 -0.2174121E+03 -0.5751606E+03  0.8671569E+03  0.1452394E+03 -0.1050732E+04 -0.6340938E+03 -0.3309901E+06  0.1849519E+06  0.1605350E+06  0.5395734E+05
  0.1900000E+01  0.1728328E+06  0.5205967E+06 -0.2229762E+03 -0.5192991E+03  0.8886552E+03  0.1426918E+03 -0.1180358E+04 -0.3838423E+03 -0.3419679E+06  0.2006501E+06  0.1621616E+06  0.4775702E+05
  0.1950000E+01  0.1655742E+06  0.4943296E+06 -0.2007897E+03 -0.5032737E+03  0.9174716E+03  0.1417117E+03 -0.1241331E+04 -0.3467031E+03 -0.3531480E+06  0.2140016E+06  0.1638041E+06  0.4115912E+05
  0.2000000E+01  0.1599677E+06  0.4668082E+06 -0.1684641E+03 -0.4870509E+03  0.9434371E+03  0.1533699E+03 -0.1268195E+04 -0.4449866E+03 -0.3642204E+06  0.2246556E+06  0.1654628E+06  0.3518302E+05
Zone t="Motion of body    1 in DoF   7",I=    40,F=POINT
  0.5000000E-01  0.1423086E+04 -0.5055219E-05  0.6613372E+06 -0.2958812E-04 -0.1613611E+06 -0.1158338E+01  0.9321777E+06 -0.2661377E-02  0.1493354E+04 -0.4826337E-03  0.1614941E+03  0.1600005E-02
  0.9999999E-01  0.1444295E+04  0.2505630E-03  0.6637969E+06  0.3891195E-01 -0.1617261E+06 -0.8546746E+01  0.9344948E+06 -0.4540002E-01  0.1471209E+04 -0.4913323E-02  0.1696851E+03  0.1155531E-01
  0.1500000E+00  0.1285739E+04  0.4962325E-02  0.6683748E+06  0.8124107E+00 -0.1622629E+06 -0.2499708E+02  0.9375792E+06  0.1515231E+00  0.1412682E+04 -0.2173685E-01 -0.5075619E+03  0.3320432E-01
  0.2000000E+00  0.1325861E+04  0.4073238E-01  0.6728190E+06  0.6398801E+01 -0.1623956E+06 -0.4753612E+02  0.9380204E+06  0.3466282E+01  0.1457870E+04 -0.6547114E-01 -0.4739453E+03  0.6764770E-01
  0.2500000E+00  0.1430049E+04  0.2051889E+00  0.6772639E+06  0.3090603E+02 -0.1624780E+06 -0.6676433E+02  0.9395416E+06  0.2114378E+02  0.1463761E+04 -0.1498551E+00 -0.3262031E+03  0.1072786E+00
  0.3000000E+00  0.1399762E+04  0.7262292E+00  0.6831826E+06  0.1104843E+03 -0.1626743E+06 -0.6848975E+02  0.9408249E+06  0.8290421E+02  0.1402667E+04 -0.2602116E+00 -0.3211653E+03  0.1825311E+00
  0.3500000E+00  0.1365214E+04  0.2099117E+01  0.6908923E+06  0.3216233E+03 -0.1629788E+06 -0.3807273E+02  0.9418209E+06  0.2509865E+03  0.1417390E+04 -0.3343822E+00 -0.5647266E+03  0.2551947E+00
  0.4000001E+00  0.1451380E+04  0.5252355E+01  0.6990519E+06  0.8053800E+03 -0.1634164E+06  0.3472794E+02  0.9469742E+06  0.6398444E+03  0.1429172E+04 -0.2319064E+00 -0.4358373E+03  0.5360947E+00
  0.4499998E+00  0.1501678E+04  0.1163002E+02  0.7105337E+06  0.1801363E+04 -0.1640400E+06  0.1452220E+03  0.9499974E+06  0.1429244E+04  0.1479700E+04  0.4151521E+00 -0.5018144E+03  0.8926849E+00
  0.5000001E+00  0.1516432E+04  0.2340839E+02  0.7221694E+06  0.3676455E+04 -0.1650120E+06  0.2728387E+03  0.9564312E+06  0.2896409E+04  0.1470554E+04  0.2020185E+01 -0.6189687E+03  0.1321640E+01
  0.5500002E+00  0.1521673E+04  0.4357407E+02  0.7381839E+06  0.6987824E+04 -0.1663474E+06  0.3608604E+03  0.9612098E+06  0.5407993E+04  0.1582233E+04  0.5895041E+01 -0.8488297E+03  0.1132507E+01
  0.5999997E+00  0.1653583E+04  0.7708290E+02  0.7549281E+06  0.1248571E+05 -0.1678817E+06  0.3310351E+03  0.9688134E+06  0.9452431E+04  0.1575312E+04  0.1287886E+02 -0.5923375E+03  0.3185364E+01
  0.6500000E+00  0.1653429E+04  0.1278224E+03  0.7742513E+06  0.2119031E+05 -0.1699484E+06  0.5146364E+02  0.9746384E+06  0.1559960E+05  0.1619170E+04  0.2553587E+02 -0.7279207E+03  0.2864990E+01
  0.6999999E+00  0.1743075E+04  0.2023828E+03  0.7960743E+06  0.3442545E+05 -0.1722143E+06 -0.6388443E+03  0.9804094E+06  0.2449460E+05  0.1677268E+04  0.4699942E+02 -0.6990263E+03  0.1908691E+01
  0.7500000E+00  0.1734255E+04  0.3049958E+03  0.8161481E+06  0.5362482E+05 -0.1746592E+06 -0.1926791E+04  0.9860139E+06  0.3682034E+05  0.1760406E+04  0.8253073E+02 -0.7550312E+03 -0.2834229E+01
  0.8000000E+00  0.1784612E+04  0.4387994E+03  0.8371776E+06  0.8051509E+05 -0.1771046E+06 -0.4030691E+04  0.9876602E+06  0.5285993E+05  0.1792608E+04  0.1341491E+03 -0.8965112E+03 -0.2260107E+02
  0.8500000E+00  0.1670577E+04  0.5988556E+03  0.8556058E+06  0.1167484E+06 -0.1794290E+06 -0.7181753E+04  0.9851463E+06  0.7303776E+05  0.1923380E+04  0.2162394E+03 -0.1253431E+04 -0.6859082E+02
  0.8999999E+00  0.1653146E+04  0.7918552E+03  0.8682816E+06  0.1635609E+06 -0.1810090E+06 -0.1146930E+05  0.9781842E+06  0.9684277E+05  0.1874822E+04  0.3110882E+03 -0.1238640E+04 -0.1161357E+03
  0.9499999E+00  0.1504733E+04  0.9778894E+03  0.8720336E+06  0.2211030E+06 -0.1816846E+06 -0.1692645E+05  0.9674010E+06  0.1235540E+06  0.1969751E+04  0.4896057E+03 -0.1152097E+04 -0.1691221E+03
  0.9999999E+00  0.1279130E+04  0.1143221E+04  0.8650842E+06  0.2881604E+06 -0.1811648E+06 -0.2343921E+05  0.9485674E+06  0.1506275E+06  0.1991023E+04  0.6891971E+03 -0.1309297E+04 -0.2769629E+03
  0.1050000E+01  0.1085263E+04  0.1256430E+04  0.8472192E+06  0.3625431E+06 -0.1791831E+06 -0.3062440E+05  0.9216522E+06  0.1749127E+06  0.1899317E+04  0.8798890E+03 -0.1607504E+04 -0.4922969E+03
  0.1100000E+01  0.7973687E+03  0.1266027E+04  0.8145047E+06  0.4392746E+06 -0.1757122E+06 -0.3794808E+05  0.8912638E+06  0.1945699E+06  0.1842362E+04  0.1197082E+04 -0.1612646E+04 -0.6729961E+03
  0.1150000E+01  0.5520096E+03  0.1201275E+04  0.7701769E+06  0.5133559E+06 -0.1708884E+06 -0.4477932E+05  0.8585576E+06  0.2065851E+06  0.1752071E+04  0.1488349E+04 -0.1591016E+04 -0.8402539E+03
  0.1200000E+01  0.4321118E+03  0.1079967E+04  0.7172481E+06  0.5797139E+06 -0.1651241E+06 -0.5048866E+05  0.8240034E+06  0.2074611E+06  0.1426666E+04  0.1568921E+04 -0.1729255E+04 -0.1109090E+04
  0.1250000E+01  0.3359300E+03  0.8357832E+03  0.6587809E+06  0.6344119E+06 -0.1588959E+06 -0.5464625E+05  0.7937570E+06  0.1993266E+06  0.1239458E+04  0.1834993E+04 -0.1457706E+04 -0.1230945E+04
  0.1300000E+01  0.2008262E+03  0.5312207E+03  0.5983214E+06  0.6743396E+06 -0.1527173E+06 -0.5714117E+05  0.7668594E+06  0.1807504E+06  0.1047508E+04  0.1954139E+04 -0.2011905E+04 -0.1843559E+04
  0.1350000E+01  0.2694540E+03  0.2830615E+03  0.5404816E+06  0.7002369E+06 -0.1469617E+06 -0.5789148E+05  0.7457988E+06  0.1540060E+06  0.7285798E+03  0.1918038E+04 -0.1728391E+04 -0.1823289E+04
  0.1400000E+01  0.4072124E+03  0.8458594E+02  0.4876732E+06  0.7136094E+06 -0.1418616E+06 -0.5705366E+05  0.7313596E+06  0.1224523E+06  0.5473911E+03  0.1766014E+04 -0.1796162E+04 -0.2062289E+04
  0.1450000E+01  0.5488378E+03 -0.1604727E+03  0.4405837E+06  0.7154386E+06 -0.1376390E+06 -0.5513773E+05  0.7228183E+06  0.8794619E+05  0.3644992E+03  0.1653884E+04 -0.1651362E+04 -0.1914961E+04
  0.1500000E+01  0.6210732E+03 -0.3853779E+03  0.3994997E+06  0.7074568E+06 -0.1342800E+06 -0.5228714E+05  0.7186131E+06  0.5005510E+05  0.3344705E+03  0.1581153E+04 -0.2046060E+04 -0.2991660E+04
  0.1550000E+01  0.8425180E+03 -0.4109688E+03  0.3650843E+06  0.6933021E+06 -0.1317046E+06 -0.4885625E+05  0.7188266E+06  0.1075553E+05  0.2338258E+03  0.1199598E+04 -0.2018442E+04 -0.2582074E+04
  0.1600000E+01  0.1026699E+04 -0.3503564E+03  0.3367973E+06  0.6743154E+06 -0.1298772E+06 -0.4502960E+05  0.7228564E+06 -0.2754377E+05  0.2365503E+03  0.9288716E+03 -0.2254004E+04 -0.3470348E+04
  0.1650000E+01  0.1237570E+04 -0.3015654E+03  0.3137999E+06  0.6530041E+06 -0.1286270E+06 -0.4111807E+05  0.7305293E+06 -0.6391066E+05  0.2074289E+03  0.8820093E+03 -0.2330523E+04 -0.3929254E+04
  0.1700000E+01  0.1344999E+04 -0.2653848E+03  0.2948825E+06  0.6281855E+06 -0.1279094E+06 -0.3726845E+05  0.7406645E+06 -0.1014874E+06  0.2180519E+03  0.8120916E+03 -0.2702024E+04 -0.4795523E+04
  0.1750000E+01  0.1435215E+04 -0.6461084E+02  0.2796839E+06  0.6033222E+06 -0.1275481E+06 -0.3343535E+05  0.7529533E+06 -0.1335103E+06  0.3092440E+03  0.8188807E+03 -0.2765614E+04 -0.6338707E+04
  0.1800000E+01  0.1552338E+04  0.2843979E+03  0.2673772E+06  0.5769488E+06 -0.1275170E+06 -0.2977563E+05  0.7666511E+06 -0.1650125E+06  0.3175522E+03  0.4143357E+03 -0.2833370E+04 -0.7197949E+04
  0.1850000E+01  0.1629721E+04  0.6797148E+03  0.2576220E+06  0.5509629E+06 -0.1277246E+06 -0.2626215E+05  0.7813036E+06 -0.1912983E+06  0.4026658E+03  0.2020504E+03 -0.2851176E+04 -0.9071182E+04
  0.1900000E+01  0.1745433E+04  0.1214410E+04  0.2497162E+06  0.5245134E+06 -0.1281184E+06 -0.2302073E+05  0.7965685E+06 -0.2130627E+06  0.4586369E+03 -0.4402100E+01 -0.2696276E+04 -0.1071218E+05
  0.1950000E+01  0.1758667E+04  0.1853588E+04  0.2434970E+06  0.4960325E+06 -0.1286246E+06 -0.2004282E+05  0.8124926E+06 -0.2323045E+06  0.6391183E+03 -0.7757416E+02 -0.2455558E+04 -0.1295982E+05
  0.2000000E+01  0.1678951E+04  0.2904046E+04  0.2388978E+06  0.4669252E+06 -0.1292197E+06 -0.1727352E+05  0.8279459E+06 -0.2464644E+06  0.1013675E+04  0.3062336E+03 -0.1460024E+04 -0.1614191E+05
Zone t="Motion of body    1 in DoF   7",I=    40,F=POINT
  0.5000000E-01 -0.2010051E+04  0.3272295E-03 -0.1579472E+06  0.2588046E-01  0.3869608E+06  0.6449890E+02 -0.6038447E+06  0.1677864E+00 -0.2299459E+04  0.2540195E-01 -0.3092622E+04 -0.8773565E-01
  0.9999999E-01 -0.2031516E+04  0.1024246E-01 -0.1583390E+06  0.8126659E+00  0.3919726E+06  0.5070447E+03 -0.6046709E+06  0.5274477E+01 -0.2311086E+04  0.2806697E+00 -0.3093817E+04 -0.6796227E+00
  0.1500000E+00 -0.2049713E+04  0.7307816E-01 -0.1590145E+06  0.5962973E+01  0.3950013E+06  0.1661727E+04 -0.6034542E+06  0.3882083E+02 -0.2287730E+04  0.1366295E+01 -0.3050686E+04 -0.2176628E+01
  0.2000000E+00 -0.2056254E+04  0.2789764E+00 -0.1590798E+06  0.2379351E+02  0.3970395E+06  0.3779009E+04 -0.6021525E+06  0.1565338E+03 -0.2265132E+04  0.4554832E+01 -0.3048249E+04 -0.4785370E+01
  0.2500000E+00 -0.2068571E+04  0.7417755E+00 -0.1591498E+06  0.6755067E+02  0.3974446E+06  0.6995253E+04 -0.6001442E+06  0.4509960E+03 -0.2189690E+04  0.1194140E+02 -0.3024371E+04 -0.8492310E+01
  0.3000000E+00 -0.2091936E+04  0.1538574E+01 -0.1593403E+06  0.1534873E+03  0.3958697E+06  0.1131674E+05 -0.5982494E+06  0.1045818E+04 -0.2115725E+04  0.2646669E+02 -0.3048335E+04 -0.1300256E+02
  0.3500000E+00 -0.2110514E+04  0.2557922E+01 -0.1596250E+06  0.2966689E+03  0.3922410E+06  0.1662060E+05 -0.5964233E+06  0.2078727E+04 -0.2079768E+04  0.5178250E+02 -0.3018943E+04 -0.1796973E+02
  0.4000001E+00 -0.2146633E+04  0.3423279E+01 -0.1601630E+06  0.5053496E+03  0.3866302E+06  0.2266967E+05 -0.5948906E+06  0.3676807E+04 -0.2007877E+04  0.9170059E+02 -0.3029909E+04 -0.2276318E+02
  0.4499998E+00 -0.2184805E+04  0.3153992E+01 -0.1608942E+06  0.7730151E+03  0.3792211E+06  0.2914848E+05 -0.5937528E+06  0.5929785E+04 -0.1934789E+04  0.1500341E+03 -0.2980380E+04 -0.2730493E+02
  0.5000001E+00 -0.2242014E+04  0.1926270E+00 -0.1619916E+06  0.1072986E+04  0.3704708E+06  0.3569057E+05 -0.5939198E+06  0.8867911E+04 -0.1900996E+04  0.2302014E+03 -0.3015450E+04 -0.3056152E+02
  0.5500002E+00 -0.2309147E+04 -0.8182495E+01 -0.1634488E+06  0.1348103E+04  0.3607047E+06  0.4193896E+05 -0.5949279E+06  0.1243632E+05 -0.1873620E+04  0.3346072E+03 -0.3009377E+04 -0.3342334E+02
  0.5999997E+00 -0.2381063E+04 -0.2588000E+02 -0.1652602E+06  0.1507574E+04  0.3504325E+06  0.4754343E+05 -0.5965062E+06  0.1649066E+05 -0.1841137E+04  0.4635607E+03 -0.2972832E+04 -0.3705029E+02
  0.6500000E+00 -0.2472309E+04 -0.5784375E+02 -0.1674850E+06  0.1422937E+04  0.3401555E+06  0.5225039E+05 -0.6001791E+06  0.2082071E+05 -0.1871646E+04  0.6178328E+03 -0.3049243E+04 -0.3962598E+02
  0.6999999E+00 -0.2550692E+04 -0.1112886E+03 -0.1700652E+06  0.9210125E+03  0.3301676E+06  0.5585428E+05 -0.6040940E+06  0.2512446E+05 -0.1911747E+04  0.7948113E+03 -0.3004904E+04 -0.4749805E+02
  0.7500000E+00 -0.2664742E+04 -0.1921157E+03 -0.1727409E+06 -0.1962085E+03  0.3208749E+06  0.5823659E+05 -0.6094189E+06  0.2906575E+05 -0.1996066E+04  0.9914836E+03 -0.3072670E+04 -0.5618652E+02
  0.8000000E+00 -0.2721028E+04 -0.3102158E+03 -0.1754818E+06 -0.2150192E+04  0.3125273E+06  0.5940678E+05 -0.6145928E+06  0.3236522E+05 -0.2121863E+04  0.1200748E+04 -0.2982198E+04 -0.7425537E+02
  0.8500000E+00 -0.2811248E+04 -0.4701919E+03 -0.1780111E+06 -0.5158299E+04  0.3052643E+06  0.5942880E+05 -0.6207564E+06  0.3465942E+05 -0.2268481E+04  0.1421472E+04 -0.3048020E+04 -0.9390137E+02
  0.8999999E+00 -0.2843119E+04 -0.6795837E+03 -0.1799168E+06 -0.9379225E+04  0.2991648E+06  0.5838727E+05 -0.6260014E+06  0.3588786E+05 -0.2422335E+04  0.1637745E+04 -0.3018585E+04 -0.1227666E+03
  0.9499999E+00 -0.2841412E+04 -0.9329946E+03 -0.1809351E+06 -0.1482488E+05  0.2941755E+06  0.5644390E+05 -0.6306276E+06  0.3588767E+05 -0.2659375E+04  0.1836728E+04 -0.3015428E+04 -0.1618374E+03
  0.9999999E+00 -0.2779827E+04 -0.1216993E+04 -0.1806918E+06 -0.2136955E+05  0.2903349E+06  0.5380772E+05 -0.6348685E+06  0.3477992E+05 -0.2924826E+04  0.2012285E+04 -0.3034644E+04 -0.1904780E+03
  0.1050000E+01 -0.2658416E+04 -0.1525401E+04 -0.1789288E+06 -0.2865856E+05  0.2874484E+06  0.5063871E+05 -0.6372252E+06  0.3318314E+05 -0.3152911E+04  0.2160652E+04 -0.2925649E+04 -0.2206011E+03
  0.1100000E+01 -0.2471721E+04 -0.1818552E+04 -0.1756568E+06 -0.3612063E+05  0.2854351E+06  0.4706271E+05 -0.6389119E+06  0.3100538E+05 -0.3447532E+04  0.2233902E+04 -0.2893704E+04 -0.2335171E+03
  0.1150000E+01 -0.2261571E+04 -0.2080385E+04 -0.1710264E+06 -0.4318068E+05  0.2841888E+06  0.4320278E+05 -0.6399508E+06  0.2867657E+05 -0.3703501E+04  0.2270310E+04 -0.2921863E+04 -0.2421953E+03
  0.1200000E+01 -0.2017419E+04 -0.2309463E+04 -0.1653218E+06 -0.4914907E+05  0.2835930E+06  0.3920121E+05 -0.6397914E+06  0.2711771E+05 -0.3894119E+04  0.2286846E+04 -0.2819585E+04 -0.2297549E+03
  0.1250000E+01 -0.1725383E+04 -0.2437452E+04 -0.1592049E+06 -0.5363713E+05  0.2835193E+06  0.3510580E+05 -0.6393958E+06  0.2583841E+05 -0.4154157E+04  0.2169447E+04 -0.2766242E+04 -0.2220889E+03
  0.1300000E+01 -0.1498625E+04 -0.2520567E+04 -0.1529505E+06 -0.5630684E+05  0.2839770E+06  0.3108423E+05 -0.6392744E+06  0.2488633E+05 -0.4349936E+04  0.2053804E+04 -0.2766366E+04 -0.9748828E+02
  0.1350000E+01 -0.1305703E+04 -0.2555814E+04 -0.1471440E+06 -0.5731288E+05  0.2848111E+06  0.2717268E+05 -0.6388126E+06  0.2504867E+05 -0.4478750E+04  0.1883269E+04 -0.2789039E+04 -0.1081794E+03
  0.1400000E+01 -0.1095585E+04 -0.2552202E+04 -0.1419299E+06 -0.5678957E+05  0.2859152E+06  0.2344531E+05 -0.6384657E+06  0.2555033E+05 -0.4568609E+04  0.1718058E+04 -0.2703825E+04 -0.6090430E+02
  0.1450000E+01 -0.9316671E+03 -0.2479184E+04 -0.1376730E+06 -0.5511438E+05  0.2872580E+06  0.2008652E+05 -0.6386286E+06  0.2566568E+05 -0.4660916E+04  0.1439145E+04 -0.2710913E+04 -0.4364929E+02
  0.1500000E+01 -0.8228839E+03 -0.2425867E+04 -0.1341943E+06 -0.5236898E+05  0.2887687E+06  0.1706272E+05 -0.6392179E+06  0.2584371E+05 -0.4740755E+04  0.1185415E+04 -0.2816765E+04  0.7657410E+02
  0.1550000E+01 -0.7302192E+03 -0.2372887E+04 -0.1315132E+06 -0.4907887E+05  0.2903138E+06  0.1435123E+05 -0.6397874E+06  0.2662474E+05 -0.4737375E+04  0.9741940E+03 -0.2844914E+04 -0.9225830E+01
  0.1600000E+01 -0.6039534E+03 -0.2283973E+04 -0.1295418E+06 -0.4541819E+05  0.2918742E+06  0.1197064E+05 -0.6404483E+06  0.2704503E+05 -0.4716100E+04  0.7101064E+03 -0.2785701E+04  0.1097982E+03
  0.1650000E+01 -0.5369352E+03 -0.2173140E+04 -0.1282249E+06 -0.4168113E+05  0.2933759E+06  0.9937822E+04 -0.6410849E+06  0.2675129E+05 -0.4684416E+04  0.3950153E+03 -0.2725156E+04  0.2832635E+03
  0.1700000E+01 -0.5229403E+03 -0.2154982E+04 -0.1274194E+06 -0.3778591E+05  0.2948448E+06  0.8305084E+04 -0.6418869E+06  0.2593696E+05 -0.4626674E+04  0.1083129E+03 -0.2853826E+04  0.1473457E+03
  0.1750000E+01 -0.4847482E+03 -0.2196467E+04 -0.1270137E+06 -0.3406695E+05  0.2962184E+06  0.6897418E+04 -0.6426596E+06  0.2504699E+05 -0.4634492E+04 -0.1391317E+03 -0.2933725E+04  0.4328162E+02
  0.1800000E+01 -0.4418581E+03 -0.2211913E+04 -0.1269115E+06 -0.3042965E+05  0.2974963E+06  0.5681332E+04 -0.6433199E+06  0.2434041E+05 -0.4589344E+04 -0.3249514E+03 -0.2938970E+04  0.5710571E+02
  0.1850000E+01 -0.3428418E+03 -0.2308490E+04 -0.1269956E+06 -0.2689304E+05  0.2986612E+06  0.4662818E+04 -0.6435378E+06  0.2329809E+05 -0.4579505E+04 -0.5732400E+03 -0.2929800E+04  0.2111725E+03
  0.1900000E+01 -0.2625580E+03 -0.2556763E+04 -0.1273627E+06 -0.2362816E+05  0.2996901E+06  0.3880096E+04 -0.6435974E+06  0.2204233E+05 -0.4575059E+04 -0.9737460E+03 -0.2996335E+04  0.4335285E+03
  0.1950000E+01 -0.8082965E+02 -0.3184325E+04 -0.1278576E+06 -0.2065205E+05  0.3005806E+06  0.3285520E+04 -0.6434654E+06  0.2007709E+05 -0.4635102E+04 -0.1557920E+04 -0.3074402E+04  0.1074060E+03
  0.2000000E+01  0.4451501E+03 -0.4473886E+04 -0.1285506E+06 -0.1782112E+05  0.3013158E+06  0.2705085E+04 -0.6437248E+06  0.1861054E+05 -0.4818386E+04 -0.2871022E+04 -0.3171779E+04 -0.6956740E+03
Zone t="Motion of body    1 in DoF   7",I=    40,F=POINT
  0.5000000E-01  0.6887696E+04 -0.8359551E-05  0.9268814E+06 -0.7273816E-03 -0.6103132E+06 -0.2650185E+01  0.5895167E+07 -0.6725118E-02  0.5098583E+04 -0.1109306E-02  0.1260389E+05  0.3650814E-02
  0.9999999E-01  0.6959785E+04  0.1292914E-02  0.9289539E+06  0.1403838E-01 -0.6123356E+06 -0.1695797E+02  0.5911749E+07 -0.1392367E+00  0.5142399E+04 -0.1089540E-01  0.1246502E+05  0.2332628E-01
  0.1500000E+00  0.6736350E+04  0.2594787E-01  0.9328376E+06  0.5828013E+00 -0.6112701E+06 -0.3449062E+02  0.5913218E+07 -0.2378621E+00  0.4905677E+04 -0.4017180E-01  0.1118605E+05  0.5931306E-01
  0.2000000E+00  0.6739615E+04  0.2008950E+00  0.9335989E+06  0.5163846E+01 -0.6101587E+06 -0.1170551E+02  0.5912886E+07  0.3777896E+01  0.4839918E+04 -0.9737796E-01  0.1121552E+05  0.9986407E-01
  0.2500000E+00  0.6949730E+04  0.9633646E+00  0.9355212E+06  0.2586166E+02 -0.6081109E+06  0.1359912E+03  0.5910324E+07  0.2857770E+02  0.4770956E+04 -0.1656092E+00  0.1160934E+05  0.2143660E+00
  0.3000000E+00  0.7056569E+04  0.3387035E+01  0.9367150E+06  0.9334006E+02 -0.6062064E+06  0.5287458E+03  0.5916832E+07  0.1178624E+03  0.4925114E+04 -0.1184673E+00  0.1180220E+05  0.7837868E+00
  0.3500000E+00  0.7045904E+04  0.9688976E+01  0.9376257E+06  0.2706871E+03 -0.6042826E+06  0.1303838E+04  0.5921049E+07  0.3596370E+03  0.4973182E+04  0.3061295E+00  0.1135790E+05  0.2471298E+01
  0.4000001E+00  0.7302873E+04  0.2383841E+02  0.9427750E+06  0.6703561E+03 -0.6026316E+06  0.2601576E+04  0.5923926E+07  0.9055036E+03  0.4886125E+04  0.1520771E+01  0.1196893E+05  0.6992035E+01
  0.4499998E+00  0.7445842E+04  0.5216855E+02  0.9459121E+06  0.1473425E+04 -0.6010034E+06  0.4509902E+04  0.5928266E+07  0.1969940E+04  0.4937567E+04  0.3781193E+01  0.1166505E+05  0.1617166E+02
  0.5000001E+00  0.7618619E+04  0.1040271E+03  0.9520808E+06  0.2943308E+04 -0.6009862E+06  0.7095847E+04  0.5934362E+07  0.3868754E+04  0.4898311E+04  0.7885754E+01  0.1188649E+05  0.3364520E+02
  0.5500002E+00  0.7788725E+04  0.1921781E+03  0.9563558E+06  0.5451194E+04 -0.6015595E+06  0.1027513E+05  0.5944042E+07  0.6971351E+04  0.4888461E+04  0.1373618E+02  0.1174168E+05  0.6450073E+02
  0.5999997E+00  0.8142583E+04  0.3334422E+03  0.9639638E+06  0.9452466E+04 -0.6025372E+06  0.1399237E+05  0.5945002E+07  0.1159395E+05  0.4915874E+04  0.2278815E+02  0.1196961E+05  0.1120908E+03
  0.6500000E+00  0.8428229E+04  0.5498856E+03  0.9693849E+06  0.1551486E+05 -0.6058553E+06  0.1797054E+05  0.5953072E+07  0.1833365E+05  0.4988803E+04  0.3384433E+02  0.1243653E+05  0.1891392E+03
  0.6999999E+00  0.8649906E+04  0.8570974E+03  0.9752130E+06  0.2428273E+05 -0.6089339E+06  0.2195482E+05  0.5957978E+07  0.2722958E+05  0.4904257E+04  0.4932883E+02  0.1235188E+05  0.2865798E+03
  0.7500000E+00  0.8876371E+04  0.1288244E+04  0.9798604E+06  0.3627813E+05 -0.6139182E+06  0.2572209E+05  0.5960616E+07  0.3890431E+05  0.4991409E+04  0.6444707E+02  0.1253461E+05  0.4350093E+03
  0.8000000E+00  0.8960016E+04  0.1835878E+04  0.9816098E+06  0.5195729E+05 -0.6185592E+06  0.2884947E+05  0.5956268E+07  0.5240111E+05  0.4854138E+04  0.8107956E+02  0.1217867E+05  0.5745376E+03
  0.8500000E+00  0.8931487E+04  0.2535175E+04  0.9785812E+06  0.7160234E+05 -0.6243238E+06  0.3098455E+05  0.5958158E+07  0.6906934E+05  0.4812277E+04  0.9160065E+02  0.1203889E+05  0.8048965E+03
  0.8999999E+00  0.8854113E+04  0.3369828E+04  0.9717637E+06  0.9479117E+05 -0.6288447E+06  0.3228041E+05  0.5950080E+07  0.8582420E+05  0.4561952E+04  0.7216077E+02  0.1206546E+05  0.9858418E+03
  0.9499999E+00  0.8460125E+04  0.4280384E+04  0.9603253E+06  0.1202663E+06 -0.6332519E+06  0.3248816E+05  0.5939000E+07  0.1034942E+06  0.4846293E+04  0.2738066E+03  0.1224887E+05  0.1259188E+04
  0.9999999E+00  0.7906629E+04  0.5219148E+04  0.9417924E+06  0.1460378E+06 -0.6373526E+06  0.3167507E+05  0.5925752E+07  0.1201213E+06  0.4879591E+04  0.3364643E+03  0.1232835E+05  0.1531354E+04
  0.1050000E+01  0.7154166E+04  0.6079680E+04  0.9157662E+06  0.1694218E+06 -0.6394098E+06  0.3036158E+05  0.5907662E+07  0.1314150E+06  0.4440878E+04  0.2382736E+03  0.1178125E+05  0.1573793E+04
  0.1100000E+01  0.6116212E+04  0.6753524E+04  0.8855944E+06  0.1875074E+06 -0.6411474E+06  0.2852011E+05  0.5893261E+07  0.1412374E+06  0.4581309E+04  0.7243420E+03  0.1153531E+05  0.1645875E+04
  0.1150000E+01  0.5201168E+04  0.7196411E+04  0.8540290E+06  0.1980313E+06 -0.6422699E+06  0.2666926E+05  0.5879430E+07  0.1479302E+06  0.4508930E+04  0.8510559E+03  0.1164467E+05  0.2010674E+04
  0.1200000E+01  0.4228933E+04  0.7425609E+04  0.8208968E+06  0.1984366E+06 -0.6420585E+06  0.2557194E+05  0.5867609E+07  0.1474919E+06  0.3757564E+04  0.3573640E+03  0.1117871E+05  0.1607340E+04
  0.1250000E+01  0.3326162E+04  0.7131508E+04  0.7920252E+06  0.1895305E+06 -0.6418039E+06  0.2470829E+05  0.5859976E+07  0.1466424E+06  0.3515662E+04  0.7112672E+03  0.1138980E+05  0.1724133E+04
  0.1300000E+01  0.2382385E+04  0.6626856E+04  0.7657702E+06  0.1702951E+06 -0.6421031E+06  0.2386526E+05  0.5856608E+07  0.1484708E+06  0.3075649E+04  0.3080181E+03  0.1038746E+05  0.9452793E+03
  0.1350000E+01  0.1960189E+04  0.5736772E+04  0.7460919E+06  0.1438300E+06 -0.6420212E+06  0.2417754E+05  0.5849243E+07  0.1445204E+06  0.2860316E+04  0.1250275E+03  0.1095661E+05  0.9747090E+03
  0.1400000E+01  0.1795111E+04  0.5009938E+04  0.7328624E+06  0.1128477E+06 -0.6419018E+06  0.2499471E+05  0.5846440E+07  0.1449381E+06  0.2394194E+04 -0.1516150E+04  0.1104544E+05  0.7929766E+03
  0.1450000E+01  0.1849630E+04  0.3802547E+04  0.7253259E+06  0.7900903E+05 -0.6423008E+06  0.2518411E+05  0.5844463E+07  0.1518970E+06  0.2122340E+04 -0.2186543E+04  0.1150981E+05  0.1177256E+04
  0.1500000E+01  0.1826169E+04  0.2914710E+04  0.7212812E+06  0.4161761E+05 -0.6431879E+06  0.2508375E+05  0.5841316E+07  0.1603335E+06  0.2329616E+04 -0.3677490E+04  0.1091955E+05 -0.5311816E+03