VARIABLES="w (rad/s)"
"A   1   1" "B   1   1"
"A   1   2" "B   1   2"
"A   1   3" "B   1   3"
"A   1   4" "B   1   4"
"A   1   5" "B   1   5"
"A   1   6" "B   1   6"
Zone t="Motion of body    1 in DoF   1",I=    40,F=POINT
  0.5000000E-01  0.5627049E+06  0.3601587E-03 -0.7664176E+03  0.7728487E-04  0.1258577E+04  0.1893737E+00 -0.2269699E+04  0.5073207E-03 -0.4068486E+06 -0.1280727E-03  0.2492832E+06 -0.8016732E-04
  0.9999999E-01  0.5646999E+06  0.4589445E-01 -0.7702827E+03  0.2308147E-02  0.1278880E+04  0.1478077E+01 -0.2325499E+04  0.1519454E-01 -0.4073127E+06 -0.2070178E-01  0.2516724E+06  0.2090605E-01
  0.1500000E+00  0.5700262E+06  0.7900590E+00 -0.8775704E+03  0.1557133E-01  0.1284375E+04  0.4787734E+01 -0.2504725E+04  0.1094583E+00 -0.4095872E+06 -0.3701656E+00  0.2537592E+06  0.3874319E+00
  0.2000000E+00  0.5738179E+06  0.5864303E+01 -0.8531411E+03  0.5483048E-01  0.1291412E+04  0.1070366E+02 -0.2541450E+04  0.4233256E+00 -0.4097520E+06 -0.2752754E+01  0.2549505E+06  0.2887423E+01
  0.2500000E+00  0.5779619E+06  0.2763640E+02 -0.8401523E+03  0.1276838E+00  0.1297386E+04  0.1939830E+02 -0.2478969E+04  0.1164151E+01 -0.4103358E+06 -0.1290648E+02  0.2565804E+06  0.1351970E+02
  0.3000000E+00  0.5832946E+06  0.9762076E+02 -0.8460905E+03  0.2073032E+00  0.1288395E+04  0.3059767E+02 -0.2452743E+04  0.2523058E+01 -0.4104619E+06 -0.4516888E+02  0.2575656E+06  0.4717262E+02
  0.3500000E+00  0.5906058E+06  0.2826160E+03 -0.8833123E+03  0.1632519E+00  0.1280897E+04  0.4366857E+02 -0.2557415E+04  0.4546292E+01 -0.4100058E+06 -0.1289979E+03  0.2591331E+06  0.1344280E+03
  0.4000001E+00  0.5980756E+06  0.7059523E+03 -0.8756404E+03 -0.2602859E+00  0.1269055E+04  0.5765223E+02 -0.2485312E+04  0.7088177E+01 -0.4129595E+06 -0.3190919E+03  0.2617895E+06  0.3304384E+03
  0.4500001E+00  0.6084991E+06  0.1578296E+04 -0.8951652E+03 -0.1610601E+01  0.1259834E+04  0.7194614E+02 -0.2554319E+04  0.9397825E+01 -0.4134306E+06 -0.7006936E+03  0.2644012E+06  0.7238742E+03
  0.5000001E+00  0.6196179E+06  0.3225133E+04 -0.9456769E+03 -0.4786747E+01  0.1242913E+04  0.8564653E+02 -0.2642028E+04  0.1034502E+02 -0.4172518E+06 -0.1410947E+04  0.2679243E+06  0.1448338E+04
  0.5500002E+00  0.6344074E+06  0.6141667E+04 -0.9851943E+03 -0.1113300E+02  0.1227120E+04  0.9887115E+02 -0.2673970E+04  0.8080650E+01 -0.4177106E+06 -0.2619647E+04  0.2712128E+06  0.2687078E+04
  0.5999997E+00  0.6496508E+06  0.1100078E+05 -0.9785642E+03 -0.2219869E+02  0.1224744E+04  0.1106884E+03 -0.2697889E+04 -0.5003204E+00 -0.4223112E+06 -0.4598458E+04  0.2761688E+06  0.4694737E+04
  0.6500000E+00  0.6681840E+06  0.1873542E+05 -0.1045330E+04 -0.4098274E+02  0.1213531E+04  0.1238226E+03 -0.2710479E+04 -0.1423221E+02 -0.4239749E+06 -0.7591111E+04  0.2803162E+06  0.7757134E+04
  0.7000000E+00  0.6882037E+06  0.3053954E+05 -0.1052432E+04 -0.7020078E+02  0.1223386E+04  0.1383112E+03 -0.2787928E+04 -0.4719940E+02 -0.4257041E+06 -0.1196229E+05  0.2850758E+06  0.1224937E+05
  0.7500001E+00  0.7078326E+06  0.4779454E+05 -0.1121415E+04 -0.1138519E+03  0.1216947E+04  0.1584627E+03 -0.2840287E+04 -0.8617932E+02 -0.4287862E+06 -0.1809947E+05  0.2892286E+06  0.1853811E+05
  0.8000000E+00  0.7278945E+06  0.7208372E+05 -0.1130391E+04 -0.1764267E+03  0.1237219E+04  0.1827973E+03 -0.2967049E+04 -0.1721019E+03 -0.4292834E+06 -0.2613030E+05  0.2932132E+06  0.2699273E+05
  0.8500000E+00  0.7464776E+06  0.1050853E+06 -0.1189916E+04 -0.2608754E+03  0.1228306E+04  0.2189766E+03 -0.2991463E+04 -0.2567845E+03 -0.4257290E+06 -0.3608126E+05  0.2943623E+06  0.3774902E+05
  0.9000000E+00  0.7597891E+06  0.1480776E+06 -0.1175295E+04 -0.3629115E+03  0.1235454E+04  0.2663962E+03 -0.3060663E+04 -0.3804752E+03 -0.4217213E+06 -0.4812293E+05  0.2945043E+06  0.5105972E+05
  0.9500000E+00  0.7651484E+06  0.2014375E+06 -0.1128548E+04 -0.4795502E+03  0.1215922E+04  0.3159833E+03 -0.3033092E+04 -0.5086802E+03 -0.4156435E+06 -0.6163774E+05  0.2917145E+06  0.6653284E+05
  0.1000000E+01  0.7610544E+06  0.2642810E+06 -0.1099938E+04 -0.6051943E+03  0.1189860E+04  0.3783507E+03 -0.3007811E+04 -0.6363445E+03 -0.4044998E+06 -0.7494158E+05  0.2853782E+06  0.8333401E+05
  0.1050000E+01  0.7459426E+06  0.3345649E+06 -0.1007506E+04 -0.7343752E+03  0.1163742E+04  0.4488495E+03 -0.3042152E+04 -0.9035645E+03 -0.3887264E+06 -0.8653637E+05  0.2757219E+06  0.1003981E+06
  0.1100000E+01  0.7176279E+06  0.4082492E+06 -0.9028525E+03 -0.8412717E+03  0.1100345E+04  0.4961711E+03 -0.3008548E+04 -0.1077092E+04 -0.3709073E+06 -0.9512255E+05  0.2626982E+06  0.1162542E+06
  0.1150000E+01  0.6775179E+06  0.4801043E+06 -0.8069634E+03 -0.9048975E+03  0.1035074E+04  0.5436904E+03 -0.2852056E+04 -0.1174694E+04 -0.3516095E+06 -0.9863338E+05  0.2475174E+06  0.1294459E+06
  0.1200000E+01  0.6286313E+06  0.5453661E+06 -0.6837258E+03 -0.9546074E+03  0.9723282E+03  0.5718832E+03 -0.2844958E+04 -0.1564998E+04 -0.3320114E+06 -0.9581094E+05  0.2314856E+06  0.1388931E+06
  0.1250000E+01  0.5735414E+06  0.5997947E+06 -0.5530300E+03 -0.9361826E+03  0.9162972E+03  0.5660048E+03 -0.2652692E+04 -0.1706459E+04 -0.3142097E+06 -0.8667587E+05  0.2154494E+06  0.1438490E+06
  0.1300000E+01  0.5167592E+06  0.6409832E+06 -0.5292239E+03 -0.1006522E+04  0.8476612E+03  0.5490630E+03 -0.2611485E+04 -0.2161196E+04 -0.2994082E+06 -0.7133988E+05  0.2001902E+06  0.1439622E+06
  0.1350000E+01  0.4615541E+06  0.6686065E+06 -0.4653091E+03 -0.9529414E+03  0.8004560E+03  0.5149904E+03 -0.2456779E+04 -0.2247458E+04 -0.2885047E+06 -0.5155141E+05  0.1875520E+06  0.1406781E+06
  0.1400000E+01  0.4102870E+06  0.6834326E+06 -0.3829301E+03 -0.9121421E+03  0.7798011E+03  0.4677684E+03 -0.2099702E+04 -0.2455473E+04 -0.2815950E+06 -0.2826407E+05  0.1775117E+06  0.1345794E+06
  0.1450000E+01  0.3647830E+06  0.6875476E+06 -0.3271780E+03 -0.8453213E+03  0.7678633E+03  0.4082219E+03 -0.1858350E+04 -0.2518732E+04 -0.2782288E+06 -0.2405091E+04  0.1696558E+06  0.1259926E+06
  0.1500000E+01  0.3251073E+06  0.6826996E+06 -0.3119538E+03 -0.9193438E+03  0.7550048E+03  0.3484018E+03 -0.1601301E+04 -0.2848090E+04 -0.2781993E+06  0.2421014E+05  0.1637472E+06  0.1158831E+06
  0.1550000E+01  0.2915647E+06  0.6715566E+06 -0.2909834E+03 -0.8477612E+03  0.7560875E+03  0.2928525E+03 -0.1437377E+04 -0.2626438E+04 -0.2809846E+06  0.5103958E+05  0.1601500E+06  0.1056942E+06
  0.1600000E+01  0.2634983E+06  0.6554358E+06 -0.2465000E+03 -0.7785908E+03  0.7764402E+03  0.2613110E+03 -0.1070056E+04 -0.2334705E+04 -0.2860553E+06  0.7680511E+05  0.1582658E+06  0.9589517E+05
  0.1650000E+01  0.2402850E+06  0.6364332E+06 -0.2297263E+03 -0.6772734E+03  0.7964774E+03  0.2330965E+03 -0.8918666E+03 -0.1949348E+04 -0.2929967E+06  0.1017481E+06  0.1575518E+06  0.8627580E+05
  0.1700000E+01  0.2212034E+06  0.6151980E+06 -0.2228617E+03 -0.7087153E+03  0.8157554E+03  0.1872485E+03 -0.8665215E+03 -0.1799197E+04 -0.3011852E+06  0.1252183E+06  0.1573661E+06  0.7644191E+05
  0.1750000E+01  0.2055025E+06  0.5928022E+06 -0.2271035E+03 -0.6762554E+03  0.8218115E+03  0.1560641E+03 -0.9079457E+03 -0.1245191E+04 -0.3103727E+06  0.1470978E+06  0.1579561E+06  0.6803369E+05
  0.1800000E+01  0.1925581E+06  0.5696821E+06 -0.2192182E+03 -0.6490195E+03  0.8425757E+03  0.1410069E+03 -0.9777885E+03 -0.1179235E+04 -0.3203479E+06  0.1670516E+06  0.1590603E+06  0.6056069E+05
  0.1850000E+01  0.1817805E+06  0.5456549E+06 -0.2173995E+03 -0.5751394E+03  0.8671638E+03  0.1452558E+03 -0.1050761E+04 -0.6341206E+03 -0.3309901E+06  0.1849518E+06  0.1605349E+06  0.5395731E+05
  0.1900000E+01  0.1728329E+06  0.5205967E+06 -0.2229963E+03 -0.5192646E+03  0.8886584E+03  0.1426797E+03 -0.1180372E+04 -0.3838569E+03 -0.3419678E+06  0.2006500E+06  0.1621616E+06  0.4775700E+05
  0.1950000E+01  0.1655742E+06  0.4943296E+06 -0.2007817E+03 -0.5033088E+03  0.9175003E+03  0.1417119E+03 -0.1241351E+04 -0.3466792E+03 -0.3531481E+06  0.2140016E+06  0.1638041E+06  0.4115905E+05
  0.2000000E+01  0.1599677E+06  0.4668081E+06 -0.1684520E+03 -0.4870627E+03  0.9434583E+03  0.1533680E+03 -0.1268210E+04 -0.4449753E+03 -0.3642203E+06  0.2246555E+06  0.1654628E+06  0.3518302E+05
Zone t="Motion of body    1 in DoF   2",I=    40,F=POINT
  0.5000000E-01  0.1423080E+04 -0.2745539E-05  0.6613371E+06 -0.1499243E-04 -0.1613611E+06 -0.1158343E+01  0.9321776E+06 -0.2622712E-02  0.1493309E+04 -0.4701577E-03  0.1615039E+03  0.1605548E-02
  0.9999999E-01  0.1444313E+04  0.2383143E-03  0.6637969E+06  0.3887579E-01 -0.1617261E+06 -0.8546701E+01  0.9344949E+06 -0.4570746E-01  0.1471162E+04 -0.4839472E-02  0.1696558E+03  0.1145184E-01
  0.1500000E+00  0.1285714E+04  0.4951656E-02  0.6683748E+06  0.8125075E+00 -0.1622630E+06 -0.2499726E+02  0.9375794E+06  0.1511812E+00  0.1412717E+04 -0.2150050E-01 -0.5076969E+03  0.3295040E-01
  0.2000000E+00  0.1325851E+04  0.4065418E-01  0.6728191E+06  0.6399238E+01 -0.1623956E+06 -0.4753619E+02  0.9380204E+06  0.3468722E+01  0.1457916E+04 -0.6450737E-01 -0.4740430E+03  0.6622529E-01
  0.2500000E+00  0.1430045E+04  0.2047387E+00  0.6772639E+06  0.3090825E+02 -0.1624779E+06 -0.6676081E+02  0.9395417E+06  0.2114474E+02  0.1463755E+04 -0.1489995E+00 -0.3263027E+03  0.1093466E+00
  0.3000000E+00  0.1399790E+04  0.7265303E+00  0.6831828E+06  0.1104855E+03 -0.1626748E+06 -0.6850475E+02  0.9408254E+06  0.8291214E+02  0.1402716E+04 -0.2594267E+00 -0.3211328E+03  0.1874897E+00
  0.3500000E+00  0.1365232E+04  0.2099012E+01  0.6908921E+06  0.3216359E+03 -0.1629790E+06 -0.3808788E+02  0.9418208E+06  0.2510096E+03  0.1417271E+04 -0.3295615E+00 -0.5647517E+03  0.2535877E+00
  0.4000001E+00  0.1451411E+04  0.5251966E+01  0.6990520E+06  0.8053868E+03 -0.1634166E+06  0.3469960E+02  0.9469741E+06  0.6398494E+03  0.1429152E+04 -0.2170475E+00 -0.4358226E+03  0.5257530E+00
  0.4500001E+00  0.1501631E+04  0.1162504E+02  0.7105341E+06  0.1801368E+04 -0.1640403E+06  0.1451768E+03  0.9499972E+06  0.1429235E+04  0.1479736E+04  0.4054756E+00 -0.5018466E+03  0.9160080E+00
  0.5000001E+00  0.1516385E+04  0.2340540E+02  0.7221695E+06  0.3676460E+04 -0.1650120E+06  0.2728593E+03  0.9564313E+06  0.2896424E+04  0.1470606E+04  0.2027060E+01 -0.6188378E+03  0.1326797E+01
  0.5500002E+00  0.1521621E+04  0.4358411E+02  0.7381838E+06  0.6987827E+04 -0.1663474E+06  0.3608669E+03  0.9612099E+06  0.5407963E+04  0.1582247E+04  0.5882051E+01 -0.8488403E+03  0.1133545E+01
  0.5999997E+00  0.1653569E+04  0.7707576E+02  0.7549281E+06  0.1248570E+05 -0.1678817E+06  0.3310558E+03  0.9688138E+06  0.9452414E+04  0.1575380E+04  0.1287434E+02 -0.5922659E+03  0.3168823E+01
  0.6500000E+00  0.1653422E+04  0.1278188E+03  0.7742512E+06  0.2119028E+05 -0.1699483E+06  0.5148945E+02  0.9746382E+06  0.1559958E+05  0.1619146E+04  0.2552475E+02 -0.7278154E+03  0.2823730E+01
  0.7000000E+00  0.1743066E+04  0.2023943E+03  0.7960746E+06  0.3442548E+05 -0.1722144E+06 -0.6388569E+03  0.9804094E+06  0.2449469E+05  0.1677285E+04  0.4702083E+02 -0.6989815E+03  0.1911743E+01
  0.7500001E+00  0.1734304E+04  0.3049918E+03  0.8161481E+06  0.5362480E+05 -0.1746592E+06 -0.1926781E+04  0.9860140E+06  0.3682035E+05  0.1760338E+04  0.8253363E+02 -0.7549843E+03 -0.2855957E+01
  0.8000000E+00  0.1784552E+04  0.4388107E+03  0.8371773E+06  0.8051508E+05 -0.1771046E+06 -0.4030728E+04  0.9876602E+06  0.5285992E+05  0.1792685E+04  0.1341578E+03 -0.8964624E+03 -0.2253857E+02
  0.8500000E+00  0.1670599E+04  0.5988442E+03  0.8556058E+06  0.1167483E+06 -0.1794289E+06 -0.7181719E+04  0.9851463E+06  0.7303768E+05  0.1923385E+04  0.2162401E+03 -0.1253438E+04 -0.6865771E+02
  0.9000000E+00  0.1653138E+04  0.7918333E+03  0.8682816E+06  0.1635610E+06 -0.1810090E+06 -0.1146927E+05  0.9781842E+06  0.9684276E+05  0.1874810E+04  0.3111290E+03 -0.1238652E+04 -0.1161719E+03
  0.9500000E+00  0.1504792E+04  0.9778862E+03  0.8720336E+06  0.2211031E+06 -0.1816845E+06 -0.1692651E+05  0.9674010E+06  0.1235541E+06  0.1969700E+04  0.4896409E+03 -0.1152159E+04 -0.1691914E+03
  0.1000000E+01  0.1279101E+04  0.1143244E+04  0.8650841E+06  0.2881606E+06 -0.1811648E+06 -0.2343919E+05  0.9485676E+06  0.1506275E+06  0.1990972E+04  0.6891708E+03 -0.1309266E+04 -0.2769902E+03
  0.1050000E+01  0.1085316E+04  0.1256420E+04  0.8472192E+06  0.3625432E+06 -0.1791831E+06 -0.3062441E+05  0.9216522E+06  0.1749128E+06  0.1899226E+04  0.8798633E+03 -0.1607489E+04 -0.4924238E+03
  0.1100000E+01  0.7973619E+03  0.1266001E+04  0.8145048E+06  0.4392748E+06 -0.1757122E+06 -0.3794812E+05  0.8912641E+06  0.1945701E+06  0.1842328E+04  0.1197036E+04 -0.1612667E+04 -0.6730488E+03
  0.1150000E+01  0.5519905E+03  0.1201296E+04  0.7701769E+06  0.5133560E+06 -0.1708884E+06 -0.4477930E+05  0.8585576E+06  0.2065852E+06  0.1752032E+04  0.1488330E+04 -0.1591067E+04 -0.8402148E+03
  0.1200000E+01  0.4321619E+03  0.1079985E+04  0.7172483E+06  0.5797139E+06 -0.1651242E+06 -0.5048860E+05  0.8240034E+06  0.2074611E+06  0.1426645E+04  0.1568943E+04 -0.1729281E+04 -0.1109129E+04
  0.1250000E+01  0.3359387E+03  0.8357520E+03  0.6587808E+06  0.6344120E+06 -0.1588959E+06 -0.5464629E+05  0.7937571E+06  0.1993265E+06  0.1239488E+04  0.1834960E+04 -0.1457656E+04 -0.1230914E+04
  0.1300000E+01  0.2008138E+03  0.5311768E+03  0.5983214E+06  0.6743398E+06 -0.1527173E+06 -0.5714121E+05  0.7668594E+06  0.1807502E+06  0.1047517E+04  0.1954090E+04 -0.2011965E+04 -0.1843672E+04
  0.1350000E+01  0.2695157E+03  0.2830684E+03  0.5404816E+06  0.7002372E+06 -0.1469617E+06 -0.5789149E+05  0.7457989E+06  0.1540060E+06  0.7285406E+03  0.1918006E+04 -0.1728268E+04 -0.1823223E+04
  0.1400000E+01  0.4071975E+03  0.8465234E+02  0.4876731E+06  0.7136095E+06 -0.1418616E+06 -0.5705367E+05  0.7313597E+06  0.1224523E+06  0.5473614E+03  0.1766075E+04 -0.1796152E+04 -0.2062332E+04
  0.1450000E+01  0.5488264E+03 -0.1605146E+03  0.4405837E+06  0.7154386E+06 -0.1376390E+06 -0.5513770E+05  0.7228182E+06  0.8794605E+05  0.3645196E+03  0.1653840E+04 -0.1651368E+04 -0.1915008E+04
  0.1500000E+01  0.6211058E+03 -0.3853623E+03  0.3994997E+06  0.7074568E+06 -0.1342800E+06 -0.5228712E+05  0.7186131E+06  0.5005520E+05  0.3344902E+03  0.1581183E+04 -0.2045976E+04 -0.2991699E+04
  0.1550000E+01  0.8425143E+03 -0.4110547E+03  0.3650843E+06  0.6933023E+06 -0.1317046E+06 -0.4885624E+05  0.7188266E+06  0.1075565E+05  0.2338247E+03  0.1199523E+04 -0.2018457E+04 -0.2582047E+04
  0.1600000E+01  0.1026701E+04 -0.3503535E+03  0.3367973E+06  0.6743155E+06 -0.1298772E+06 -0.4502958E+05  0.7228564E+06 -0.2754385E+05  0.2365437E+03  0.9288572E+03 -0.2253997E+04 -0.3470441E+04
  0.1650000E+01  0.1237597E+04 -0.3015449E+03  0.3137997E+06  0.6530038E+06 -0.1286270E+06 -0.4111801E+05  0.7305295E+06 -0.6391093E+05  0.2074812E+03  0.8819841E+03 -0.2330535E+04 -0.3929285E+04
  0.1700000E+01  0.1345017E+04 -0.2653564E+03  0.2948824E+06  0.6281855E+06 -0.1279094E+06 -0.3726845E+05  0.7406644E+06 -0.1014873E+06  0.2180116E+03  0.8120487E+03 -0.2702095E+04 -0.4795680E+04
  0.1750000E+01  0.1435209E+04 -0.6460449E+02  0.2796839E+06  0.6033222E+06 -0.1275481E+06 -0.3343536E+05  0.7529533E+06 -0.1335102E+06  0.3092160E+03  0.8188638E+03 -0.2765619E+04 -0.6338766E+04
  0.1800000E+01  0.1552352E+04  0.2844087E+03  0.2673772E+06  0.5769487E+06 -0.1275170E+06 -0.2977563E+05  0.7666512E+06 -0.1650126E+06  0.3175733E+03  0.4143169E+03 -0.2833341E+04 -0.7198027E+04
  0.1850000E+01  0.1629733E+04  0.6796919E+03  0.2576219E+06  0.5509628E+06 -0.1277246E+06 -0.2626217E+05  0.7813036E+06 -0.1912982E+06  0.4026853E+03  0.2020164E+03 -0.2851265E+04 -0.9071258E+04
  0.1900000E+01  0.1745423E+04  0.1214470E+04  0.2497162E+06  0.5245134E+06 -0.1281184E+06 -0.2302073E+05  0.7965685E+06 -0.2130629E+06  0.4586717E+03 -0.4396423E+01 -0.2696310E+04 -0.1071228E+05
  0.1950000E+01  0.1758670E+04  0.1853586E+04  0.2434970E+06  0.4960325E+06 -0.1286246E+06 -0.2004283E+05  0.8124925E+06 -0.2323045E+06  0.6391092E+03 -0.7760754E+02 -0.2455581E+04 -0.1295984E+05
  0.2000000E+01  0.1678950E+04  0.2904072E+04  0.2388978E+06  0.4669252E+06 -0.1292197E+06 -0.1727352E+05  0.8279459E+06 -0.2464645E+06  0.1013678E+04  0.3062288E+03 -0.1459974E+04 -0.1614185E+05
Zone t="Motion of body    1 in DoF   3",I=    40,F=POINT
  0.5000000E-01 -0.2010024E+04  0.3429651E-03 -0.1579471E+06  0.2589262E-01  0.3869607E+06  0.6449889E+02 -0.6038442E+06  0.1678033E+00 -0.2299589E+04  0.2541268E-01 -0.3092532E+04 -0.8773470E-01
  0.9999999E-01 -0.2031506E+04  0.1014996E-01 -0.1583389E+06  0.8126884E+00  0.3919726E+06  0.5070446E+03 -0.6046709E+06  0.5274499E+01 -0.2311104E+04  0.2807045E+00 -0.3093869E+04 -0.6794357E+00
  0.1500000E+00 -0.2049719E+04  0.7342529E-01 -0.1590145E+06  0.5963356E+01  0.3950012E+06  0.1661727E+04 -0.6034544E+06  0.3882079E+02 -0.2287647E+04  0.1365578E+01 -0.3050639E+04 -0.2176346E+01
  0.2000000E+00 -0.2056194E+04  0.2791290E+00 -0.1590798E+06  0.2379502E+02  0.3970394E+06  0.3779006E+04 -0.6021524E+06  0.1565332E+03 -0.2265064E+04  0.4554867E+01 -0.3048381E+04 -0.4784546E+01
  0.2500000E+00 -0.2068539E+04  0.7424164E+00 -0.1591500E+06  0.6755181E+02  0.3974449E+06  0.6995258E+04 -0.6001449E+06  0.4510008E+03 -0.2189735E+04  0.1194436E+02 -0.3024469E+04 -0.8495850E+01
  0.3000000E+00 -0.2091902E+04  0.1539368E+01 -0.1593403E+06  0.1534918E+03  0.3958698E+06  0.1131674E+05 -0.5982500E+06  0.1045836E+04 -0.2115740E+04  0.2646931E+02 -0.3048260E+04 -0.1300647E+02
  0.3500000E+00 -0.2110558E+04  0.2556824E+01 -0.1596250E+06  0.2966658E+03  0.3922411E+06  0.1662061E+05 -0.5964234E+06  0.2078717E+04 -0.2079724E+04  0.5178888E+02 -0.3018973E+04 -0.1796729E+02
  0.4000001E+00 -0.2146629E+04  0.3421692E+01 -0.1601629E+06  0.5053535E+03  0.3866302E+06  0.2266968E+05 -0.5948903E+06  0.3676793E+04 -0.2007787E+04  0.9170280E+02 -0.3029927E+04 -0.2277393E+02
  0.4500001E+00 -0.2184801E+04  0.3148743E+01 -0.1608942E+06  0.7730158E+03  0.3792211E+06  0.2914853E+05 -0.5937529E+06  0.5929799E+04 -0.1934800E+04  0.1500309E+03 -0.2980435E+04 -0.2729541E+02
  0.5000001E+00 -0.2241984E+04  0.1915283E+00 -0.1619916E+06  0.1072963E+04  0.3704708E+06  0.3569057E+05 -0.5939196E+06  0.8867919E+04 -0.1901061E+04  0.2301916E+03 -0.3015604E+04 -0.3055542E+02
  0.5500002E+00 -0.2309177E+04 -0.8177490E+01 -0.1634487E+06  0.1348084E+04  0.3607047E+06  0.4193896E+05 -0.5949276E+06  0.1243632E+05 -0.1873629E+04  0.3345994E+03 -0.3009351E+04 -0.3341553E+02
  0.5999997E+00 -0.2381063E+04 -0.2587207E+02 -0.1652601E+06  0.1507576E+04  0.3504325E+06  0.4754343E+05 -0.5965060E+06  0.1649066E+05 -0.1841153E+04  0.4635479E+03 -0.2972851E+04 -0.3706494E+02
  0.6500000E+00 -0.2472312E+04 -0.5783643E+02 -0.1674849E+06  0.1422950E+04  0.3401555E+06  0.5225037E+05 -0.6001789E+06  0.2082075E+05 -0.1871767E+04  0.6178267E+03 -0.3049365E+04 -0.3966357E+02
  0.7000000E+00 -0.2550696E+04 -0.1113037E+03 -0.1700651E+06  0.9210233E+03  0.3301676E+06  0.5585430E+05 -0.6040941E+06  0.2512447E+05 -0.1911645E+04  0.7948647E+03 -0.3004958E+04 -0.4751318E+02
  0.7500001E+00 -0.2664726E+04 -0.1921123E+03 -0.1727409E+06 -0.1962307E+03  0.3208749E+06  0.5823662E+05 -0.6094191E+06  0.2906576E+05 -0.1996173E+04  0.9914908E+03 -0.3072643E+04 -0.5615479E+02
  0.8000000E+00 -0.2721017E+04 -0.3102229E+03 -0.1754818E+06 -0.2150185E+04  0.3125274E+06  0.5940684E+05 -0.6145925E+06  0.3236518E+05 -0.2121942E+04  0.1200756E+04 -0.2982149E+04 -0.7425049E+02
  0.8500000E+00 -0.2811271E+04 -0.4702319E+03 -0.1780110E+06 -0.5158324E+04  0.3052643E+06  0.5942883E+05 -0.6207566E+06  0.3465943E+05 -0.2268512E+04  0.1421496E+04 -0.3048067E+04 -0.9382764E+02
  0.9000000E+00 -0.2843116E+04 -0.6795867E+03 -0.1799168E+06 -0.9379230E+04  0.2991648E+06  0.5838725E+05 -0.6260014E+06  0.3588784E+05 -0.2422423E+04  0.1637745E+04 -0.3018589E+04 -0.1227754E+03
  0.9500000E+00 -0.2841415E+04 -0.9329841E+03 -0.1809351E+06 -0.1482493E+05  0.2941754E+06  0.5644390E+05 -0.6306277E+06  0.3588770E+05 -0.2659468E+04  0.1836750E+04 -0.3015456E+04 -0.1618550E+03
  0.1000000E+01 -0.2779824E+04 -0.1216987E+04 -0.1806918E+06 -0.2136953E+05  0.2903348E+06  0.5380769E+05 -0.6348686E+06  0.3477995E+05 -0.2924927E+04  0.2012307E+04 -0.3034626E+04 -0.1905366E+03
  0.1050000E+01 -0.2658410E+04 -0.1525407E+04 -0.1789288E+06 -0.2865856E+05  0.2874484E+06  0.5063868E+05 -0.6372253E+06  0.3318316E+05 -0.3152931E+04  0.2160677E+04 -0.2925638E+04 -0.2206235E+03
  0.1100000E+01 -0.2471698E+04 -0.1818575E+04 -0.1756568E+06 -0.3612062E+05  0.2854352E+06  0.4706272E+05 -0.6389119E+06  0.3100535E+05 -0.3447537E+04  0.2233883E+04 -0.2893729E+04 -0.2335146E+03
  0.1150000E+01 -0.2261571E+04 -0.2080374E+04 -0.1710265E+06 -0.4318070E+05  0.2841888E+06  0.4320281E+05 -0.6399509E+06  0.2867658E+05 -0.3703527E+04  0.2270279E+04 -0.2921832E+04 -0.2421733E+03
  0.1200000E+01 -0.2017422E+04 -0.2309484E+04 -0.1653219E+06 -0.4914910E+05  0.2835930E+06  0.3920117E+05 -0.6397916E+06  0.2711770E+05 -0.3894120E+04  0.2286822E+04 -0.2819608E+04 -0.2297100E+03
  0.1250000E+01 -0.1725396E+04 -0.2437491E+04 -0.1592049E+06 -0.5363712E+05  0.2835193E+06  0.3510577E+05 -0.6393957E+06  0.2583842E+05 -0.4154242E+04  0.2169471E+04 -0.2766262E+04 -0.2221023E+03
  0.1300000E+01 -0.1498620E+04 -0.2520576E+04 -0.1529505E+06 -0.5630686E+05  0.2839770E+06  0.3108427E+05 -0.6392746E+06  0.2488635E+05 -0.4349911E+04  0.2053804E+04 -0.2766392E+04 -0.9747705E+02
  0.1350000E+01 -0.1305700E+04 -0.2555799E+04 -0.1471440E+06 -0.5731289E+05  0.2848111E+06  0.2717269E+05 -0.6388126E+06  0.2504865E+05 -0.4478773E+04  0.1883263E+04 -0.2789052E+04 -0.1081714E+03
  0.1400000E+01 -0.1095596E+04 -0.2552216E+04 -0.1419299E+06 -0.5678960E+05  0.2859152E+06  0.2344531E+05 -0.6384658E+06  0.2555033E+05 -0.4568634E+04  0.1718048E+04 -0.2703860E+04 -0.6094336E+02
  0.1450000E+01 -0.9316780E+03 -0.2479190E+04 -0.1376730E+06 -0.5511440E+05  0.2872580E+06  0.2008650E+05 -0.6386289E+06  0.2566571E+05 -0.4660898E+04  0.1439143E+04 -0.2710911E+04 -0.4364136E+02
  0.1500000E+01 -0.8229146E+03 -0.2425877E+04 -0.1341943E+06 -0.5236902E+05  0.2887687E+06  0.1706273E+05 -0.6392180E+06  0.2584369E+05 -0.4740714E+04  0.1185392E+04 -0.2816805E+04  0.7655286E+02
  0.1550000E+01 -0.7302238E+03 -0.2372885E+04 -0.1315133E+06 -0.4907887E+05  0.2903139E+06  0.1435121E+05 -0.6397876E+06  0.2662478E+05 -0.4737304E+04  0.9741677E+03 -0.2844932E+04 -0.9216431E+01
  0.1600000E+01 -0.6039615E+03 -0.2283960E+04 -0.1295418E+06 -0.4541823E+05  0.2918742E+06  0.1197065E+05 -0.6404481E+06  0.2704501E+05 -0.4716071E+04  0.7101112E+03 -0.2785746E+04  0.1098176E+03
  0.1650000E+01 -0.5369307E+03 -0.2173143E+04 -0.1282249E+06 -0.4168109E+05  0.2933759E+06  0.9937808E+04 -0.6410852E+06  0.2675124E+05 -0.4684316E+04  0.3950107E+03 -0.2725185E+04  0.2832576E+03
  0.1700000E+01 -0.5229276E+03 -0.2154987E+04 -0.1274194E+06 -0.3778591E+05  0.2948448E+06  0.8305086E+04 -0.6418868E+06  0.2593696E+05 -0.4626669E+04  0.1082931E+03 -0.2853803E+04  0.1473184E+03
  0.1750000E+01 -0.4847485E+03 -0.2196472E+04 -0.1270137E+06 -0.3406692E+05  0.2962184E+06  0.6897428E+04 -0.6426596E+06  0.2504699E+05 -0.4634477E+04 -0.1391589E+03 -0.2933729E+04  0.4324908E+02
  0.1800000E+01 -0.4418403E+03 -0.2211922E+04 -0.1269115E+06 -0.3042966E+05  0.2974963E+06  0.5681322E+04 -0.6433198E+06  0.2434042E+05 -0.4589327E+04 -0.3249529E+03 -0.2938946E+04  0.5711804E+02
  0.1850000E+01 -0.3428306E+03 -0.2308484E+04 -0.1269956E+06 -0.2689303E+05  0.2986613E+06  0.4662810E+04 -0.6435377E+06  0.2329811E+05 -0.4579469E+04 -0.5732402E+03 -0.2929830E+04  0.2111759E+03
  0.1900000E+01 -0.2625628E+03 -0.2556724E+04 -0.1273627E+06 -0.2362819E+05  0.2996901E+06  0.3880094E+04 -0.6435974E+06  0.2204235E+05 -0.4575073E+04 -0.9737348E+03 -0.2996326E+04  0.4335068E+03
  0.1950000E+01 -0.8083898E+02 -0.3184307E+04 -0.1278576E+06 -0.2065206E+05  0.3005805E+06  0.3285503E+04 -0.6434654E+06  0.2007712E+05 -0.4635124E+04 -0.1557920E+04 -0.3074401E+04  0.1074023E+03
  0.2000000E+01  0.4451284E+03 -0.4473896E+04 -0.1285506E+06 -0.1782113E+05  0.3013158E+06  0.2705075E+04 -0.6437248E+06  0.1861053E+05 -0.4818401E+04 -0.2871044E+04 -0.3171762E+04 -0.6956623E+03
Zone t="Motion of body    1 in DoF   4",I=    40,F=POINT
  0.5000000E-01  0.6887636E+04  0.2250075E-05  0.9268812E+06 -0.7466376E-03 -0.6103133E+06 -0.2650224E+01  0.5895168E+07 -0.6758176E-02  0.5098817E+04 -0.1069101E-02  0.1260373E+05  0.3652588E-02
  0.9999999E-01  0.6959821E+04  0.1273513E-02  0.9289541E+06  0.1387483E-01 -0.6123359E+06 -0.1695817E+02  0.5911750E+07 -0.1397371E+00  0.5142010E+04 -0.1048191E-01  0.1246497E+05  0.2326345E-01
  0.1500000E+00  0.6736404E+04  0.2607739E-01  0.9328378E+06  0.5828930E+00 -0.6112702E+06 -0.3449175E+02  0.5913219E+07 -0.2356410E+00  0.4905703E+04 -0.3989920E-01  0.1118605E+05  0.5715442E-01
  0.2000000E+00  0.6739603E+04  0.2010621E+00  0.9335990E+06  0.5165357E+01 -0.6101589E+06 -0.1170641E+02  0.5912886E+07  0.3789215E+01  0.4840137E+04 -0.9855102E-01  0.1121540E+05  0.1057523E+00
  0.2500000E+00  0.6949699E+04  0.9608140E+00  0.9355216E+06  0.2586584E+02 -0.6081110E+06  0.1359923E+03  0.5910324E+07  0.2858081E+02  0.4770495E+04 -0.1632751E+00  0.1160947E+05  0.2198067E+00
  0.3000000E+00  0.7056517E+04  0.3390886E+01  0.9367148E+06  0.9334460E+02 -0.6062056E+06  0.5287687E+03  0.5916833E+07  0.1178818E+03  0.4925627E+04 -0.1108246E+00  0.1180197E+05  0.8048820E+00
  0.3500000E+00  0.7046050E+04  0.9688206E+01  0.9376260E+06  0.2707235E+03 -0.6042829E+06  0.1303817E+04  0.5921049E+07  0.3597470E+03  0.4973655E+04  0.3330469E+00  0.1135824E+05  0.2458267E+01
  0.4000001E+00  0.7302907E+04  0.2385348E+02  0.9427746E+06  0.6703549E+03 -0.6026312E+06  0.2601606E+04  0.5923925E+07  0.9054944E+03  0.4886130E+04  0.1497843E+01  0.1196940E+05  0.7039902E+01
  0.4500001E+00  0.7445655E+04  0.5216206E+02  0.9459121E+06  0.1473432E+04 -0.6010034E+06  0.4509896E+04  0.5928264E+07  0.1970004E+04  0.4937800E+04  0.3791004E+01  0.1166493E+05  0.1608603E+02
  0.5000001E+00  0.7618474E+04  0.1040239E+03  0.9520805E+06  0.2943306E+04 -0.6009868E+06  0.7095744E+04  0.5934362E+07  0.3868746E+04  0.4898528E+04  0.7866127E+01  0.1188636E+05  0.3375348E+02
  0.5500002E+00  0.7788740E+04  0.1921749E+03  0.9563555E+06  0.5451176E+04 -0.6015592E+06  0.1027526E+05  0.5944042E+07  0.6971347E+04  0.4888807E+04  0.1372923E+02  0.1174183E+05  0.6443188E+02
  0.5999997E+00  0.8142530E+04  0.3334474E+03  0.9639639E+06  0.9452458E+04 -0.6025370E+06  0.1399242E+05  0.5945002E+07  0.1159397E+05  0.4916200E+04  0.2274622E+02  0.1196970E+05  0.1121392E+03
  0.6500000E+00  0.8428181E+04  0.5498986E+03  0.9693848E+06  0.1551487E+05 -0.6058556E+06  0.1797051E+05  0.5953072E+07  0.1833367E+05  0.4989146E+04  0.3384447E+02  0.1243678E+05  0.1891794E+03
  0.7000000E+00  0.8650080E+04  0.8571116E+03  0.9752131E+06  0.2428275E+05 -0.6089348E+06  0.2195479E+05  0.5957979E+07  0.2722950E+05  0.4904131E+04  0.4936205E+02  0.1235230E+05  0.2866638E+03
  0.7500001E+00  0.8876285E+04  0.1288285E+04  0.9798603E+06  0.3627814E+05 -0.6139180E+06  0.2572208E+05  0.5960614E+07  0.3890418E+05  0.4991289E+04  0.6433650E+02  0.1253451E+05  0.4349727E+03
  0.8000000E+00  0.8960050E+04  0.1835875E+04  0.9816096E+06  0.5195737E+05 -0.6185593E+06  0.2884946E+05  0.5956268E+07  0.5240127E+05  0.4854231E+04  0.8111420E+02  0.1217894E+05  0.5744834E+03
  0.8500000E+00  0.8931373E+04  0.2535189E+04  0.9785811E+06  0.7160226E+05 -0.6243239E+06  0.3098431E+05  0.5958158E+07  0.6906911E+05  0.4812126E+04  0.9150630E+02  0.1203874E+05  0.8047949E+03
  0.9000000E+00  0.8854174E+04  0.3369863E+04  0.9717639E+06  0.9479122E+05 -0.6288448E+06  0.3228045E+05  0.5950083E+07  0.8582412E+05  0.4561586E+04  0.7203644E+02  0.1206544E+05  0.9860654E+03
  0.9500000E+00  0.8460058E+04  0.4280368E+04  0.9603251E+06  0.1202663E+06 -0.6332518E+06  0.3248836E+05  0.5938999E+07  0.1034941E+06  0.4846357E+04  0.2736675E+03  0.1224884E+05  0.1259090E+04
  0.1000000E+01  0.7906639E+04  0.5219095E+04  0.9417922E+06  0.1460379E+06 -0.6373526E+06  0.3167506E+05  0.5925750E+07  0.1201213E+06  0.4879578E+04  0.3364568E+03  0.1232831E+05  0.1531316E+04
  0.1050000E+01  0.7154208E+04  0.6079709E+04  0.9157663E+06  0.1694217E+06 -0.6394099E+06  0.3036169E+05  0.5907662E+07  0.1314147E+06  0.4441164E+04  0.2382218E+03  0.1178129E+05  0.1573848E+04
  0.1100000E+01  0.6116194E+04  0.6753526E+04  0.8855945E+06  0.1875074E+06 -0.6411474E+06  0.2852021E+05  0.5893262E+07  0.1412374E+06  0.4581254E+04  0.7243536E+03  0.1153518E+05  0.1645865E+04
  0.1150000E+01  0.5201211E+04  0.7196456E+04  0.8540290E+06  0.1980312E+06 -0.6422699E+06  0.2666922E+05  0.5879430E+07  0.1479303E+06  0.4509138E+04  0.8510463E+03  0.1164477E+05  0.2010924E+04
  0.1200000E+01  0.4228932E+04  0.7425566E+04  0.8208968E+06  0.1984366E+06 -0.6420584E+06  0.2557187E+05  0.5867610E+07  0.1474919E+06  0.3757551E+04  0.3575004E+03  0.1117864E+05  0.1607270E+04
  0.1250000E+01  0.3326176E+04  0.7131467E+04  0.7920249E+06  0.1895304E+06 -0.6418041E+06  0.2470822E+05  0.5859978E+07  0.1466423E+06  0.3515733E+04  0.7111632E+03  0.1138967E+05  0.1724076E+04
  0.1300000E+01  0.2382285E+04  0.6626905E+04  0.7657703E+06  0.1702952E+06 -0.6421032E+06  0.2386527E+05  0.5856608E+07  0.1484707E+06  0.3075869E+04  0.3079330E+03  0.1038737E+05  0.9452363E+03
  0.1350000E+01  0.1960218E+04  0.5736731E+04  0.7460919E+06  0.1438300E+06 -0.6420217E+06  0.2417752E+05  0.5849244E+07  0.1445204E+06  0.2860203E+04  0.1250240E+03  0.1095651E+05  0.9748184E+03
  0.1400000E+01  0.1795020E+04  0.5009885E+04  0.7328624E+06  0.1128475E+06 -0.6419018E+06  0.2499469E+05  0.5846440E+07  0.1449383E+06  0.2394113E+04 -0.1516161E+04  0.1104518E+05  0.7930117E+03
  0.1450000E+01  0.1849646E+04  0.3802566E+04  0.7253259E+06  0.7900905E+05 -0.6423010E+06  0.2518405E+05  0.5844464E+07  0.1518971E+06  0.2122216E+04 -0.2186568E+04  0.1151010E+05  0.1177188E+04
  0.1500000E+01  0.1826130E+04  0.2914714E+04  0.7212811E+06  0.4161768E+05 -0.6431879E+06  0.2508369E+05  0.5841318E+07  0.1603336E+06  0.2329730E+04 -0.3677470E+04  0.1091956E+05 -0.5311582E+03