 VARIABLES="w" "CA" "CM" "CMinf"
Zone t="Force sur  1- Mvt de  1 11",I=  40,F=POINT
   0.2000000E+01   0.3558678E+06   0.2395716E+06   0.0000000E+00
   0.1950000E+01   0.3801291E+06   0.2398576E+06   0.0000000E+00
   0.1900000E+01   0.4041098E+06   0.2413837E+06   0.0000000E+00
   0.1850000E+01   0.4300761E+06   0.2445612E+06   0.0000000E+00
   0.1800000E+01   0.4567665E+06   0.2501066E+06   0.0000000E+00
   0.1750000E+01   0.4834521E+06   0.2582635E+06   0.0000000E+00
   0.1700000E+01   0.5102223E+06   0.2699126E+06   0.0000000E+00
   0.1650000E+01   0.5355722E+06   0.2852344E+06   0.0000000E+00
   0.1600000E+01   0.5591580E+06   0.3051655E+06   0.0000000E+00
   0.1550000E+01   0.5790787E+06   0.3304108E+06   0.0000000E+00
   0.1500000E+01   0.5932946E+06   0.3610309E+06   0.0000000E+00
   0.1450000E+01   0.6009776E+06   0.3978103E+06   0.0000000E+00
   0.1400000E+01   0.5992754E+06   0.4398873E+06   0.0000000E+00
   0.1350000E+01   0.5867527E+06   0.4868776E+06   0.0000000E+00
   0.1300000E+01   0.5617959E+06   0.5364615E+06   0.0000000E+00
   0.1250000E+01   0.5246957E+06   0.5872572E+06   0.0000000E+00
   0.1200000E+01   0.4763193E+06   0.6351979E+06   0.0000000E+00
   0.1150000E+01   0.4191258E+06   0.6775543E+06   0.0000000E+00
   0.1100000E+01   0.3567731E+06   0.7120718E+06   0.0000000E+00
   0.1050000E+01   0.2936708E+06   0.7359831E+06   0.0000000E+00
   0.1000000E+01   0.2337223E+06   0.7497406E+06   0.0000000E+00
   0.9500000E+00   0.1796781E+06   0.7543734E+06   0.0000000E+00
   0.9000000E+00   0.1336033E+06   0.7500989E+06   0.0000000E+00
   0.8500000E+00   0.9617615E+05   0.7397278E+06   0.0000000E+00
   0.8000000E+00   0.6699299E+05   0.7254913E+06   0.0000000E+00
   0.7500001E+00   0.4504098E+05   0.7095865E+06   0.0000000E+00
   0.7000000E+00   0.2918336E+05   0.6925382E+06   0.0000000E+00
   0.6500000E+00   0.1816743E+05   0.6755229E+06   0.0000000E+00
   0.6000000E+00   0.1081430E+05   0.6603129E+06   0.0000000E+00
   0.5500000E+00   0.6108902E+04   0.6461412E+06   0.0000000E+00
   0.5000000E+00   0.3247565E+04   0.6334816E+06   0.0000000E+00
   0.4500000E+00   0.1605766E+04   0.6235121E+06   0.0000000E+00
   0.4000000E+00   0.7254577E+03   0.6144366E+06   0.0000000E+00
   0.3500000E+00   0.2928049E+03   0.6073904E+06   0.0000000E+00
   0.3000000E+00   0.1019760E+03   0.6016229E+06   0.0000000E+00
   0.2500000E+00   0.2904686E+02   0.5964611E+06   0.0000000E+00
   0.2000000E+00   0.6192638E+01   0.5926651E+06   0.0000000E+00
   0.1500000E+00   0.8389984E+00   0.5900976E+06   0.0000000E+00
   0.1000000E+00   0.4898341E-01   0.5842503E+06   0.0000000E+00
   0.5000000E-01   0.3946977E-03   0.5807400E+06   0.0000000E+00
Zone t="Force sur  1- Mvt de  1 13",I=  40,F=POINT
   0.2000000E+01  -0.1495361E-02  -0.8087158E-02   0.0000000E+00
   0.1950000E+01   0.5340576E-04   0.1235962E-01   0.0000000E+00
   0.1900000E+01   0.5798340E-03  -0.3234863E-02   0.0000000E+00
   0.1850000E+01  -0.1190186E-02   0.7629395E-03   0.0000000E+00
   0.1800000E+01  -0.3051758E-03   0.6286621E-02   0.0000000E+00
   0.1750000E+01   0.0000000E+00   0.2960205E-02   0.0000000E+00
   0.1700000E+01  -0.2166748E-02   0.1150513E-01   0.0000000E+00
   0.1650000E+01  -0.6317139E-02  -0.2297974E-01   0.0000000E+00
   0.1600000E+01   0.7019043E-03   0.2835083E-01   0.0000000E+00
   0.1550000E+01  -0.6103516E-04  -0.1159668E-02   0.0000000E+00
   0.1500000E+01  -0.6713867E-03   0.9613037E-02   0.0000000E+00
   0.1450000E+01  -0.3723145E-02   0.1525879E-02   0.0000000E+00
   0.1400000E+01  -0.1770020E-02   0.8422852E-02   0.0000000E+00
   0.1350000E+01  -0.6774902E-02   0.5737305E-02   0.0000000E+00
   0.1300000E+01  -0.2380371E-02   0.1324463E-01   0.0000000E+00
   0.1250000E+01  -0.1177979E-01  -0.1092529E-01   0.0000000E+00
   0.1200000E+01   0.4211426E-02   0.1101685E-01   0.0000000E+00
   0.1150000E+01   0.4272461E-02   0.4821777E-02   0.0000000E+00
   0.1100000E+01   0.5493164E-02   0.3112793E-02   0.0000000E+00
   0.1050000E+01  -0.6591797E-02  -0.4653931E-02   0.0000000E+00
   0.1000000E+01   0.1318359E-01  -0.1370239E-01   0.0000000E+00
   0.9500000E+00  -0.6713867E-02  -0.1428986E-01   0.0000000E+00
   0.9000000E+00   0.4394531E-02   0.1430130E-01   0.0000000E+00
   0.8500000E+00   0.1586914E-01   0.1052856E-02   0.0000000E+00
   0.8000000E+00   0.1593018E-01   0.1605225E-01   0.0000000E+00
   0.7500001E+00  -0.1947021E-01  -0.2008057E-01   0.0000000E+00
   0.7000000E+00  -0.1843262E-01   0.3540039E-01   0.0000000E+00
   0.6500000E+00  -0.2081299E-01  -0.8666992E-02   0.0000000E+00
   0.6000000E+00   0.1104736E-01   0.9887695E-02   0.0000000E+00
   0.5500000E+00   0.1129150E-01  -0.1525879E-02   0.0000000E+00
   0.5000000E+00   0.9735107E-02  -0.1831055E-01   0.0000000E+00
   0.4500000E+00  -0.2288818E-02   0.3186035E-01   0.0000000E+00
   0.4000000E+00   0.9307861E-02   0.7641602E-01   0.0000000E+00
   0.3500000E+00  -0.2212524E-02   0.8056641E-02   0.0000000E+00
   0.3000000E+00   0.4348755E-02  -0.1550293E-01   0.0000000E+00
   0.2500000E+00   0.2227783E-02   0.2319336E-02   0.0000000E+00
   0.2000000E+00  -0.8468628E-03  -0.1599121E-01   0.0000000E+00
   0.1500000E+00   0.4959106E-04   0.3222656E-01   0.0000000E+00
   0.1000000E+00   0.7200241E-04   0.3491211E-01   0.0000000E+00
   0.5000000E-01  -0.1567602E-04  -0.5712891E-01   0.0000000E+00
Zone t="Force sur  1- Mvt de  1 15",I=  40,F=POINT
   0.2000000E+01   0.1880111E+07   0.3650618E+06   0.0000000E+00
   0.1950000E+01   0.1974134E+07   0.3830010E+06   0.0000000E+00
   0.1900000E+01   0.2065991E+07   0.4078859E+06   0.0000000E+00
   0.1850000E+01   0.2160306E+07   0.4401263E+06   0.0000000E+00
   0.1800000E+01   0.2253607E+07   0.4836082E+06   0.0000000E+00
   0.1750000E+01   0.2342547E+07   0.5388641E+06   0.0000000E+00
   0.1700000E+01   0.2426804E+07   0.6088034E+06   0.0000000E+00
   0.1650000E+01   0.2499458E+07   0.6938235E+06   0.0000000E+00
   0.1600000E+01   0.2558474E+07   0.7960761E+06   0.0000000E+00
   0.1550000E+01   0.2598495E+07   0.9187923E+06   0.0000000E+00
   0.1500000E+01   0.2611724E+07   0.1061146E+07   0.0000000E+00
   0.1450000E+01   0.2593948E+07   0.1223614E+07   0.0000000E+00
   0.1400000E+01   0.2535702E+07   0.1401700E+07   0.0000000E+00
   0.1350000E+01   0.2434856E+07   0.1593685E+07   0.0000000E+00
   0.1300000E+01   0.2287326E+07   0.1789633E+07   0.0000000E+00
   0.1250000E+01   0.2096053E+07   0.1982370E+07   0.0000000E+00
   0.1200000E+01   0.1867132E+07   0.2155268E+07   0.0000000E+00
   0.1150000E+01   0.1613209E+07   0.2301816E+07   0.0000000E+00
   0.1100000E+01   0.1348995E+07   0.2413863E+07   0.0000000E+00
   0.1050000E+01   0.1091176E+07   0.2481157E+07   0.0000000E+00
   0.1000000E+01   0.8539130E+06   0.2510494E+07   0.0000000E+00
   0.9500000E+00   0.6460871E+06   0.2508830E+07   0.0000000E+00
   0.9000000E+00   0.4730392E+06   0.2473060E+07   0.0000000E+00
   0.8500000E+00   0.3354961E+06   0.2416478E+07   0.0000000E+00
   0.8000000E+00   0.2303956E+06   0.2349085E+07   0.0000000E+00
   0.7500001E+00   0.1528846E+06   0.2282115E+07   0.0000000E+00
   0.7000000E+00   0.9783141E+05   0.2211024E+07   0.0000000E+00
   0.6500000E+00   0.6019393E+05   0.2139813E+07   0.0000000E+00
   0.6000000E+00   0.3544770E+05   0.2082010E+07   0.0000000E+00
   0.5500000E+00   0.1982629E+05   0.2025952E+07   0.0000000E+00
   0.5000000E+00   0.1044441E+05   0.1975164E+07   0.0000000E+00
   0.4500000E+00   0.5122275E+04   0.1939402E+07   0.0000000E+00
   0.4000000E+00   0.2297228E+04   0.1902028E+07   0.0000000E+00
   0.3500000E+00   0.9212581E+03   0.1877093E+07   0.0000000E+00
   0.3000000E+00   0.3190709E+03   0.1854684E+07   0.0000000E+00
   0.2500000E+00   0.9045424E+02   0.1832530E+07   0.0000000E+00
   0.2000000E+00   0.1921327E+02   0.1817714E+07   0.0000000E+00
   0.1500000E+00   0.2595165E+01   0.1809553E+07   0.0000000E+00
   0.1000000E+00   0.1514230E+00   0.1785088E+07   0.0000000E+00
   0.5000000E-01   0.1259500E-02   0.1775148E+07   0.0000000E+00
Zone t="Force sur  1- Mvt de  1 22",I=  40,F=POINT
   0.2000000E+01   0.3558679E+06   0.2395715E+06   0.0000000E+00
   0.1950000E+01   0.3801291E+06   0.2398577E+06   0.0000000E+00
   0.1900000E+01   0.4041097E+06   0.2413837E+06   0.0000000E+00
   0.1850000E+01   0.4300762E+06   0.2445612E+06   0.0000000E+00
   0.1800000E+01   0.4567667E+06   0.2501064E+06   0.0000000E+00
   0.1750000E+01   0.4834519E+06   0.2582635E+06   0.0000000E+00
   0.1700000E+01   0.5102224E+06   0.2699129E+06   0.0000000E+00
   0.1650000E+01   0.5355724E+06   0.2852346E+06   0.0000000E+00
   0.1600000E+01   0.5591581E+06   0.3051656E+06   0.0000000E+00
   0.1550000E+01   0.5790779E+06   0.3304109E+06   0.0000000E+00
   0.1500000E+01   0.5932944E+06   0.3610312E+06   0.0000000E+00
   0.1450000E+01   0.6009778E+06   0.3978103E+06   0.0000000E+00
   0.1400000E+01   0.5992759E+06   0.4398874E+06   0.0000000E+00
   0.1350000E+01   0.5867528E+06   0.4868775E+06   0.0000000E+00
   0.1300000E+01   0.5617958E+06   0.5364621E+06   0.0000000E+00
   0.1250000E+01   0.5246959E+06   0.5872574E+06   0.0000000E+00
   0.1200000E+01   0.4763198E+06   0.6351980E+06   0.0000000E+00
   0.1150000E+01   0.4191259E+06   0.6775553E+06   0.0000000E+00
   0.1100000E+01   0.3567730E+06   0.7120721E+06   0.0000000E+00
   0.1050000E+01   0.2936713E+06   0.7359832E+06   0.0000000E+00
   0.1000000E+01   0.2337225E+06   0.7497409E+06   0.0000000E+00
   0.9500000E+00   0.1796780E+06   0.7543736E+06   0.0000000E+00
   0.9000000E+00   0.1336034E+06   0.7500989E+06   0.0000000E+00
   0.8500000E+00   0.9617609E+05   0.7397282E+06   0.0000000E+00
   0.8000000E+00   0.6699302E+05   0.7254907E+06   0.0000000E+00
   0.7500001E+00   0.4504101E+05   0.7095860E+06   0.0000000E+00
   0.7000000E+00   0.2918335E+05   0.6925374E+06   0.0000000E+00
   0.6500000E+00   0.1816744E+05   0.6755230E+06   0.0000000E+00
   0.6000000E+00   0.1081429E+05   0.6603128E+06   0.0000000E+00
   0.5500000E+00   0.6108903E+04   0.6461411E+06   0.0000000E+00
   0.5000000E+00   0.3247572E+04   0.6334806E+06   0.0000000E+00
   0.4500000E+00   0.1605762E+04   0.6235125E+06   0.0000000E+00
   0.4000000E+00   0.7254580E+03   0.6144366E+06   0.0000000E+00
   0.3500000E+00   0.2928013E+03   0.6073908E+06   0.0000000E+00
   0.3000000E+00   0.1019766E+03   0.6016236E+06   0.0000000E+00
   0.2500000E+00   0.2904636E+02   0.5964613E+06   0.0000000E+00
   0.2000000E+00   0.6192941E+01   0.5926653E+06   0.0000000E+00
   0.1500000E+00   0.8390959E+00   0.5900982E+06   0.0000000E+00
   0.1000000E+00   0.4895470E-01   0.5842506E+06   0.0000000E+00
   0.5000000E-01   0.4095381E-03   0.5807408E+06   0.0000000E+00
Zone t="Force sur  1- Mvt de  1 24",I=  40,F=POINT
   0.2000000E+01  -0.1880112E+07  -0.3650620E+06   0.0000000E+00
   0.1950000E+01  -0.1974134E+07  -0.3830010E+06   0.0000000E+00
   0.1900000E+01  -0.2065991E+07  -0.4078857E+06   0.0000000E+00
   0.1850000E+01  -0.2160306E+07  -0.4401263E+06   0.0000000E+00
   0.1800000E+01  -0.2253608E+07  -0.4836081E+06   0.0000000E+00
   0.1750000E+01  -0.2342548E+07  -0.5388642E+06   0.0000000E+00
   0.1700000E+01  -0.2426803E+07  -0.6088033E+06   0.0000000E+00
   0.1650000E+01  -0.2499456E+07  -0.6938246E+06   0.0000000E+00
   0.1600000E+01  -0.2558476E+07  -0.7960755E+06   0.0000000E+00
   0.1550000E+01  -0.2598499E+07  -0.9187924E+06   0.0000000E+00
   0.1500000E+01  -0.2611722E+07  -0.1061146E+07   0.0000000E+00
   0.1450000E+01  -0.2593949E+07  -0.1223614E+07   0.0000000E+00
   0.1400000E+01  -0.2535700E+07  -0.1401701E+07   0.0000000E+00
   0.1350000E+01  -0.2434855E+07  -0.1593686E+07   0.0000000E+00
   0.1300000E+01  -0.2287326E+07  -0.1789633E+07   0.0000000E+00
   0.1250000E+01  -0.2096053E+07  -0.1982371E+07   0.0000000E+00
   0.1200000E+01  -0.1867133E+07  -0.2155270E+07   0.0000000E+00
   0.1150000E+01  -0.1613208E+07  -0.2301818E+07   0.0000000E+00
   0.1100000E+01  -0.1348992E+07  -0.2413866E+07   0.0000000E+00
   0.1050000E+01  -0.1091175E+07  -0.2481156E+07   0.0000000E+00
   0.1000000E+01  -0.8539131E+06  -0.2510492E+07   0.0000000E+00
   0.9500000E+00  -0.6460871E+06  -0.2508829E+07   0.0000000E+00
   0.9000000E+00  -0.4730394E+06  -0.2473064E+07   0.0000000E+00
   0.8500000E+00  -0.3354959E+06  -0.2416478E+07   0.0000000E+00
   0.8000000E+00  -0.2303956E+06  -0.2349086E+07   0.0000000E+00
   0.7500001E+00  -0.1528847E+06  -0.2282112E+07   0.0000000E+00
   0.7000000E+00  -0.9783143E+05  -0.2211027E+07   0.0000000E+00
   0.6500000E+00  -0.6019387E+05  -0.2139812E+07   0.0000000E+00
   0.6000000E+00  -0.3544772E+05  -0.2082010E+07   0.0000000E+00
   0.5500000E+00  -0.1982632E+05  -0.2025952E+07   0.0000000E+00
   0.5000000E+00  -0.1044441E+05  -0.1975163E+07   0.0000000E+00
   0.4500000E+00  -0.5122285E+04  -0.1939403E+07   0.0000000E+00
   0.4000000E+00  -0.2297232E+04  -0.1902029E+07   0.0000000E+00
   0.3500000E+00  -0.9212576E+03  -0.1877093E+07   0.0000000E+00
   0.3000000E+00  -0.3190684E+03  -0.1854684E+07   0.0000000E+00
   0.2500000E+00  -0.9045355E+02  -0.1832531E+07   0.0000000E+00
   0.2000000E+00  -0.1921381E+02  -0.1817711E+07   0.0000000E+00
   0.1500000E+00  -0.2595035E+01  -0.1809552E+07   0.0000000E+00
   0.1000000E+00  -0.1512396E+00  -0.1785088E+07   0.0000000E+00
   0.5000000E-01  -0.1228430E-02  -0.1775148E+07   0.0000000E+00
Zone t="Force sur  1- Mvt de  1 33",I=  40,F=POINT
   0.2000000E+01   0.3801919E+03   0.2342722E+06   0.0000000E+00
   0.1950000E+01   0.2785102E+03   0.2341204E+06   0.0000000E+00
   0.1900000E+01   0.4819819E+03   0.2337627E+06   0.0000000E+00
   0.1850000E+01   0.6080475E+03   0.2333576E+06   0.0000000E+00
   0.1800000E+01   0.5400755E+03   0.2330291E+06   0.0000000E+00
   0.1750000E+01   0.5112158E+03   0.2326695E+06   0.0000000E+00
   0.1700000E+01   0.6553585E+03   0.2321734E+06   0.0000000E+00
   0.1650000E+01   0.1057586E+04   0.2315520E+06   0.0000000E+00
   0.1600000E+01   0.9715538E+03   0.2309789E+06   0.0000000E+00
   0.1550000E+01   0.1103389E+04   0.2302910E+06   0.0000000E+00
   0.1500000E+01   0.1693330E+04   0.2295004E+06   0.0000000E+00
   0.1450000E+01   0.2954497E+04   0.2285595E+06   0.0000000E+00
   0.1400000E+01   0.3249174E+04   0.2274975E+06   0.0000000E+00
   0.1350000E+01   0.3840122E+04   0.2263913E+06   0.0000000E+00
   0.1300000E+01   0.5354870E+04   0.2254209E+06   0.0000000E+00
   0.1250000E+01   0.7860329E+04   0.2247031E+06   0.0000000E+00
   0.1200000E+01   0.8711941E+04   0.2231412E+06   0.0000000E+00
   0.1150000E+01   0.1054084E+05   0.2221815E+06   0.0000000E+00
   0.1100000E+01   0.1333416E+05   0.2220862E+06   0.0000000E+00
   0.1050000E+01   0.1555346E+05   0.2214530E+06   0.0000000E+00
   0.1000000E+01   0.1770262E+05   0.2212531E+06   0.0000000E+00
   0.9500000E+00   0.2037569E+05   0.2227167E+06   0.0000000E+00
   0.9000000E+00   0.2237457E+05   0.2235037E+06   0.0000000E+00
   0.8500000E+00   0.2411436E+05   0.2256308E+06   0.0000000E+00
   0.8000000E+00   0.2553609E+05   0.2292094E+06   0.0000000E+00
   0.7500001E+00   0.2611400E+05   0.2321393E+06   0.0000000E+00
   0.7000000E+00   0.2613907E+05   0.2377598E+06   0.0000000E+00
   0.6500000E+00   0.2530702E+05   0.2417860E+06   0.0000000E+00
   0.6000000E+00   0.2378189E+05   0.2480772E+06   0.0000000E+00
   0.5500000E+00   0.2156239E+05   0.2534055E+06   0.0000000E+00
   0.5000000E+00   0.1881210E+05   0.2590115E+06   0.0000000E+00
   0.4500000E+00   0.1569534E+05   0.2650070E+06   0.0000000E+00
   0.4000000E+00   0.1243902E+05   0.2697094E+06   0.0000000E+00
   0.3500000E+00   0.9271144E+04   0.2733550E+06   0.0000000E+00
   0.3000000E+00   0.6402322E+04   0.2761727E+06   0.0000000E+00
   0.2500000E+00   0.4005070E+04   0.2773614E+06   0.0000000E+00
   0.2000000E+00   0.2184797E+04   0.2774755E+06   0.0000000E+00
   0.1500000E+00   0.9680688E+03   0.2766516E+06   0.0000000E+00
   0.1000000E+00   0.2970112E+03   0.2749198E+06   0.0000000E+00
   0.5000000E-01   0.3790767E+02   0.2711199E+06   0.0000000E+00
Zone t="Force sur  1- Mvt de  1 44",I=  40,F=POINT
   0.2000000E+01   0.9899570E+07   0.2341026E+07   0.0000000E+00
   0.1950000E+01   0.1022225E+08   0.2499670E+07   0.0000000E+00
   0.1900000E+01   0.1053451E+08   0.2689540E+07   0.0000000E+00
   0.1850000E+01   0.1081970E+08   0.2912230E+07   0.0000000E+00
   0.1800000E+01   0.1108788E+08   0.3184697E+07   0.0000000E+00
   0.1750000E+01   0.1132180E+08   0.3507402E+07   0.0000000E+00
   0.1700000E+01   0.1151712E+08   0.3888338E+07   0.0000000E+00
   0.1650000E+01   0.1164908E+08   0.4327172E+07   0.0000000E+00
   0.1600000E+01   0.1169300E+08   0.4823934E+07   0.0000000E+00
   0.1550000E+01   0.1164853E+08   0.5395624E+07   0.0000000E+00
   0.1500000E+01   0.1148757E+08   0.6036612E+07   0.0000000E+00
   0.1450000E+01   0.1118969E+08   0.6734766E+07   0.0000000E+00
   0.1400000E+01   0.1072885E+08   0.7471153E+07   0.0000000E+00
   0.1350000E+01   0.1010464E+08   0.8235194E+07   0.0000000E+00
   0.1300000E+01   0.9314171E+07   0.8990887E+07   0.0000000E+00
   0.1250000E+01   0.8376759E+07   0.9703316E+07   0.0000000E+00
   0.1200000E+01   0.7323344E+07   0.1030484E+08   0.0000000E+00
   0.1150000E+01   0.6213292E+07   0.1078636E+08   0.0000000E+00
   0.1100000E+01   0.5105536E+07   0.1112706E+08   0.0000000E+00
   0.1050000E+01   0.4058856E+07   0.1128198E+08   0.0000000E+00
   0.1000000E+01   0.3123862E+07   0.1129677E+08   0.0000000E+00
   0.9500000E+00   0.2327602E+07   0.1121727E+08   0.0000000E+00
   0.9000000E+00   0.1678180E+07   0.1100233E+08   0.0000000E+00
   0.8500000E+00   0.1172396E+07   0.1071536E+08   0.0000000E+00
   0.8000000E+00   0.7937388E+06   0.1040765E+08   0.0000000E+00
   0.7500001E+00   0.5201785E+06   0.1012849E+08   0.0000000E+00
   0.7000000E+00   0.3287520E+06   0.9831273E+07   0.0000000E+00
   0.6500000E+00   0.1998316E+06   0.9528272E+07   0.0000000E+00
   0.6000000E+00   0.1165071E+06   0.9313696E+07   0.0000000E+00
   0.5500000E+00   0.6451172E+05   0.9084823E+07   0.0000000E+00
   0.5000000E+00   0.3366474E+05   0.8877207E+07   0.0000000E+00
   0.4500000E+00   0.1638819E+05   0.8750848E+07   0.0000000E+00
   0.4000000E+00   0.7291812E+04   0.8590369E+07   0.0000000E+00
   0.3500000E+00   0.2907175E+04   0.8502054E+07   0.0000000E+00
   0.3000000E+00   0.1001303E+04   0.8414282E+07   0.0000000E+00
   0.2500000E+00   0.2823636E+03   0.8316321E+07   0.0000000E+00
   0.2000000E+00   0.5977039E+02   0.8255131E+07   0.0000000E+00
   0.1500000E+00   0.8042492E+01   0.8233142E+07   0.0000000E+00
   0.1000000E+00   0.4711882E+00   0.8136936E+07   0.0000000E+00
   0.5000000E-01   0.3430135E-02   0.8104320E+07   0.0000000E+00
Zone t="Force sur  1- Mvt de  1 35",I=  40,F=POINT
   0.2000000E+01  -0.2746582E-02  -0.2441406E-01   0.0000000E+00
   0.1950000E+01  -0.7690430E-02   0.5371094E-01   0.0000000E+00
   0.1900000E+01   0.3295898E-02  -0.4199219E-01   0.0000000E+00
   0.1850000E+01   0.1708984E-02   0.5566406E-01   0.0000000E+00
   0.1800000E+01   0.9887695E-02   0.1562500E-01   0.0000000E+00
   0.1750000E+01   0.4882812E-03   0.4785156E-01   0.0000000E+00
   0.1700000E+01   0.1098633E-01  -0.1855469E-01   0.0000000E+00
   0.1650000E+01   0.5419922E-01  -0.8398438E-01   0.0000000E+00
   0.1600000E+01   0.6835938E-02  -0.8789063E-02   0.0000000E+00
   0.1550000E+01   0.1074219E-01  -0.8300781E-01   0.0000000E+00
   0.1500000E+01   0.0000000E+00   0.5859375E-01   0.0000000E+00
   0.1450000E+01   0.2587891E-01  -0.6347656E-01   0.0000000E+00
   0.1400000E+01   0.3906250E-02   0.6835938E-02   0.0000000E+00
   0.1350000E+01   0.4394531E-01  -0.4882813E-01   0.0000000E+00
   0.1300000E+01   0.2197266E-01  -0.1757813E-01   0.0000000E+00
   0.1250000E+01   0.4785156E-01  -0.5664062E-01   0.0000000E+00
   0.1200000E+01  -0.7861328E-01   0.9765625E-03   0.0000000E+00
   0.1150000E+01  -0.4785156E-01  -0.3222656E-01   0.0000000E+00
   0.1100000E+01  -0.1513672E-01   0.2148438E-01   0.0000000E+00
   0.1050000E+01  -0.8154297E-01  -0.5859375E-01   0.0000000E+00
   0.1000000E+01   0.5517578E-01  -0.3222656E-01   0.0000000E+00
   0.9500000E+00   0.5273438E-01   0.2539063E-01   0.0000000E+00
   0.9000000E+00  -0.4248047E-01  -0.8007813E-01   0.0000000E+00
   0.8500000E+00  -0.6567383E-01  -0.3515625E-01   0.0000000E+00
   0.8000000E+00   0.8898926E-01   0.4687500E-01   0.0000000E+00
   0.7500001E+00  -0.2111816E-01  -0.8398438E-01   0.0000000E+00
   0.7000000E+00   0.8190918E-01   0.1171875E+00   0.0000000E+00
   0.6500000E+00   0.2392578E-01   0.1074219E+00   0.0000000E+00
   0.6000000E+00   0.1562500E-01  -0.2148438E-01   0.0000000E+00
   0.5500000E+00  -0.1480103E-01  -0.4101562E-01   0.0000000E+00
   0.5000000E+00   0.2975464E-03   0.0000000E+00   0.0000000E+00
   0.4500000E+00   0.2254486E-02  -0.5859375E-02   0.0000000E+00
   0.4000000E+00   0.1310349E-02   0.4589844E-01   0.0000000E+00
   0.3500000E+00   0.1343727E-02  -0.3222656E-01   0.0000000E+00
   0.3000000E+00   0.5664110E-02   0.3710938E-01   0.0000000E+00
   0.2500000E+00   0.4144967E-02   0.1640625E+00   0.0000000E+00
   0.2000000E+00  -0.1980215E-03   0.6640625E-01   0.0000000E+00
   0.1500000E+00   0.7981062E-04  -0.1005859E+00   0.0000000E+00
   0.1000000E+00   0.3997271E-04   0.1367188E-01   0.0000000E+00
   0.5000000E-01  -0.6490864E-04  -0.2060547E+00   0.0000000E+00
Zone t="Force sur  1- Mvt de  1 51",I=  40,F=POINT
   0.2000000E+01   0.1880981E+07   0.3674142E+06   0.0000000E+00
   0.1950000E+01   0.1975541E+07   0.3858157E+06   0.0000000E+00
   0.1900000E+01   0.2067055E+07   0.4104472E+06   0.0000000E+00
   0.1850000E+01   0.2161578E+07   0.4429757E+06   0.0000000E+00
   0.1800000E+01   0.2255016E+07   0.4865386E+06   0.0000000E+00
   0.1750000E+01   0.2343844E+07   0.5415549E+06   0.0000000E+00
   0.1700000E+01   0.2427760E+07   0.6115189E+06   0.0000000E+00
   0.1650000E+01   0.2500295E+07   0.6964158E+06   0.0000000E+00
   0.1600000E+01   0.2559631E+07   0.7989848E+06   0.0000000E+00
   0.1550000E+01   0.2599802E+07   0.9217675E+06   0.0000000E+00
   0.1500000E+01   0.2612960E+07   0.1063646E+07   0.0000000E+00
   0.1450000E+01   0.2595065E+07   0.1226280E+07   0.0000000E+00
   0.1400000E+01   0.2537036E+07   0.1404688E+07   0.0000000E+00
   0.1350000E+01   0.2436324E+07   0.1596846E+07   0.0000000E+00
   0.1300000E+01   0.2288808E+07   0.1792430E+07   0.0000000E+00
   0.1250000E+01   0.2097556E+07   0.1985258E+07   0.0000000E+00
   0.1200000E+01   0.1868550E+07   0.2158668E+07   0.0000000E+00
   0.1150000E+01   0.1614659E+07   0.2305310E+07   0.0000000E+00
   0.1100000E+01   0.1350541E+07   0.2417518E+07   0.0000000E+00
   0.1050000E+01   0.1092441E+07   0.2485092E+07   0.0000000E+00
   0.1000000E+01   0.8550927E+06   0.2514647E+07   0.0000000E+00
   0.9500000E+00   0.6473673E+06   0.2513258E+07   0.0000000E+00
   0.9000000E+00   0.4739879E+06   0.2477567E+07   0.0000000E+00
   0.8500000E+00   0.3361057E+06   0.2420736E+07   0.0000000E+00
   0.8000000E+00   0.2307974E+06   0.2353184E+07   0.0000000E+00
   0.7500001E+00   0.1532505E+06   0.2286560E+07   0.0000000E+00
   0.7000000E+00   0.9806804E+05   0.2215031E+07   0.0000000E+00
   0.6500000E+00   0.6031274E+05   0.2143818E+07   0.0000000E+00
   0.6000000E+00   0.3554365E+05   0.2086061E+07   0.0000000E+00
   0.5500000E+00   0.1987756E+05   0.2029813E+07   0.0000000E+00
   0.5000000E+00   0.1046763E+05   0.1979040E+07   0.0000000E+00
   0.4500000E+00   0.5137458E+04   0.1943166E+07   0.0000000E+00
   0.4000000E+00   0.2302741E+04   0.1905724E+07   0.0000000E+00
   0.3500000E+00   0.9239866E+03   0.1880678E+07   0.0000000E+00
   0.3000000E+00   0.3200301E+03   0.1858370E+07   0.0000000E+00
   0.2500000E+00   0.9067966E+02   0.1836165E+07   0.0000000E+00
   0.2000000E+00   0.1925867E+02   0.1821127E+07   0.0000000E+00
   0.1500000E+00   0.2602144E+01   0.1812977E+07   0.0000000E+00
   0.1000000E+00   0.1515508E+00   0.1788242E+07   0.0000000E+00
   0.5000000E-01   0.1188611E-02   0.1779415E+07   0.0000000E+00
Zone t="Force sur  1- Mvt de  1 53",I=  40,F=POINT
   0.2000000E+01  -0.7110596E-02   0.7226563E-01   0.0000000E+00
   0.1950000E+01   0.3047943E-02   0.1562500E-01   0.0000000E+00
   0.1900000E+01   0.2380371E-02  -0.9765625E-02   0.0000000E+00
   0.1850000E+01  -0.4867554E-02  -0.4296875E-01   0.0000000E+00
   0.1800000E+01  -0.7225037E-02  -0.3906250E-01   0.0000000E+00
   0.1750000E+01   0.1953125E-02  -0.5859375E-02   0.0000000E+00
   0.1700000E+01  -0.6599426E-02  -0.3906250E-01   0.0000000E+00
   0.1650000E+01  -0.9918213E-02  -0.8593750E-01   0.0000000E+00
   0.1600000E+01   0.4931641E-01  -0.5859375E-02   0.0000000E+00
   0.1550000E+01   0.1185608E-01   0.2734375E-01   0.0000000E+00
   0.1500000E+01  -0.7659912E-02  -0.3906250E-02   0.0000000E+00
   0.1450000E+01   0.6329346E-01   0.3125000E-01   0.0000000E+00
   0.1400000E+01   0.3964233E-01   0.3906250E-01   0.0000000E+00
   0.1350000E+01  -0.5493164E-03   0.4687500E-01   0.0000000E+00
   0.1300000E+01  -0.3216553E-01   0.6835938E-01   0.0000000E+00
   0.1250000E+01  -0.7250977E-01   0.2539062E-01   0.0000000E+00
   0.1200000E+01   0.2441406E-02   0.4492188E-01   0.0000000E+00
   0.1150000E+01  -0.5676270E-01  -0.3125000E-01   0.0000000E+00
   0.1100000E+01  -0.7812500E-02   0.8203125E-01   0.0000000E+00
   0.1050000E+01   0.7299805E-01   0.5273438E-01   0.0000000E+00
   0.1000000E+01  -0.2539062E-01  -0.1035156E+00   0.0000000E+00
   0.9500000E+00  -0.8154297E-01  -0.3906250E-02   0.0000000E+00
   0.9000000E+00   0.7885742E-01  -0.5859375E-01   0.0000000E+00
   0.8500000E+00  -0.4687500E-01   0.3906250E-02   0.0000000E+00
   0.8000000E+00  -0.8789062E-02   0.1757812E-01   0.0000000E+00
   0.7500001E+00  -0.3686523E-01  -0.3125000E-01   0.0000000E+00
   0.7000000E+00  -0.8007813E-01   0.7031250E-01   0.0000000E+00
   0.6500000E+00  -0.5957031E-01   0.5859375E-01   0.0000000E+00
   0.6000000E+00   0.3198242E-01  -0.2343750E-01   0.0000000E+00
   0.5500000E+00   0.2880859E-01  -0.3710938E-01   0.0000000E+00
   0.5000000E+00   0.3320312E-01   0.0000000E+00   0.0000000E+00
   0.4500000E+00   0.1342773E-01  -0.2148438E-01   0.0000000E+00
   0.4000000E+00   0.1806641E-01   0.4687500E-01   0.0000000E+00
   0.3500000E+00  -0.1440430E-01   0.3515625E-01   0.0000000E+00
   0.3000000E+00  -0.4272461E-02  -0.1445312E+00   0.0000000E+00
   0.2500000E+00   0.4638672E-02   0.1816406E+00   0.0000000E+00
   0.2000000E+00   0.1525879E-03  -0.1093750E+00   0.0000000E+00
   0.1500000E+00  -0.9918213E-03   0.5273438E-01   0.0000000E+00
   0.1000000E+00   0.6103516E-04  -0.1093750E+00   0.0000000E+00
   0.5000000E-01   0.5245209E-05  -0.8984375E-01   0.0000000E+00
Zone t="Force sur  1- Mvt de  1 55",I=  40,F=POINT
   0.2000000E+01   0.9899565E+07   0.2341026E+07   0.0000000E+00
   0.1950000E+01   0.1022227E+08   0.2499670E+07   0.0000000E+00
   0.1900000E+01   0.1053451E+08   0.2689541E+07   0.0000000E+00
   0.1850000E+01   0.1081971E+08   0.2912229E+07   0.0000000E+00
   0.1800000E+01   0.1108790E+08   0.3184698E+07   0.0000000E+00
   0.1750000E+01   0.1132179E+08   0.3507406E+07   0.0000000E+00
   0.1700000E+01   0.1151713E+08   0.3888342E+07   0.0000000E+00
   0.1650000E+01   0.1164909E+08   0.4327168E+07   0.0000000E+00
   0.1600000E+01   0.1169300E+08   0.4823931E+07   0.0000000E+00
   0.1550000E+01   0.1164852E+08   0.5395622E+07   0.0000000E+00
   0.1500000E+01   0.1148757E+08   0.6036618E+07   0.0000000E+00
   0.1450000E+01   0.1118970E+08   0.6734765E+07   0.0000000E+00
   0.1400000E+01   0.1072887E+08   0.7471154E+07   0.0000000E+00
   0.1350000E+01   0.1010464E+08   0.8235196E+07   0.0000000E+00
   0.1300000E+01   0.9314159E+07   0.8990885E+07   0.0000000E+00
   0.1250000E+01   0.8376762E+07   0.9703315E+07   0.0000000E+00
   0.1200000E+01   0.7323345E+07   0.1030485E+08   0.0000000E+00
   0.1150000E+01   0.6213298E+07   0.1078635E+08   0.0000000E+00
   0.1100000E+01   0.5105537E+07   0.1112705E+08   0.0000000E+00
   0.1050000E+01   0.4058856E+07   0.1128197E+08   0.0000000E+00
   0.1000000E+01   0.3123858E+07   0.1129677E+08   0.0000000E+00
   0.9500000E+00   0.2327601E+07   0.1121727E+08   0.0000000E+00
   0.9000000E+00   0.1678180E+07   0.1100233E+08   0.0000000E+00
   0.8500000E+00   0.1172397E+07   0.1071535E+08   0.0000000E+00
   0.8000000E+00   0.7937390E+06   0.1040765E+08   0.0000000E+00
   0.7500001E+00   0.5201781E+06   0.1012851E+08   0.0000000E+00
   0.7000000E+00   0.3287517E+06   0.9831277E+07   0.0000000E+00
   0.6500000E+00   0.1998316E+06   0.9528271E+07   0.0000000E+00
   0.6000000E+00   0.1165072E+06   0.9313705E+07   0.0000000E+00
   0.5500000E+00   0.6451162E+05   0.9084810E+07   0.0000000E+00
   0.5000000E+00   0.3366475E+05   0.8877205E+07   0.0000000E+00
   0.4500000E+00   0.1638813E+05   0.8750853E+07   0.0000000E+00
   0.4000000E+00   0.7291829E+04   0.8590370E+07   0.0000000E+00
   0.3500000E+00   0.2907149E+04   0.8502057E+07   0.0000000E+00
   0.3000000E+00   0.1001309E+04   0.8414280E+07   0.0000000E+00
   0.2500000E+00   0.2823696E+03   0.8316318E+07   0.0000000E+00
   0.2000000E+00   0.5977182E+02   0.8255134E+07   0.0000000E+00
   0.1500000E+00   0.8041790E+01   0.8233139E+07   0.0000000E+00
   0.1000000E+00   0.4710116E+00   0.8136933E+07   0.0000000E+00
   0.5000000E-01   0.3510555E-02   0.8104323E+07   0.0000000E+00
Zone t="Force sur  1- Mvt de  1 66",I=  40,F=POINT
   0.2000000E+01   0.3289804E+01   0.1401388E+05   0.0000000E+00
   0.1950000E+01  -0.6302575E+01   0.1404066E+05   0.0000000E+00
   0.1900000E+01   0.8708696E+01   0.1402381E+05   0.0000000E+00
   0.1850000E+01  -0.1273079E+02   0.1404323E+05   0.0000000E+00