VARIABLES="w (rad/s)"
"abs(F   1   1)" "angle(F   1   1)"
"abs(F   1   2)" "angle(F   1   2)"
"abs(F   1   3)" "angle(F   1   3)"
"abs(F   1   4)" "angle(F   1   4)"
"abs(F   1   5)" "angle(F   1   5)"
"abs(F   1   6)" "angle(F   1   6)"
Zone t="Diffraction force - beta =   0.000",I=    80,F=POINT
  0.5000000E-01  0.1450068E+04 -0.3141593E+01  0.2676031E-04  0.1290967E+01  0.6765884E+03  0.1573598E+01  0.2090300E-03 -0.1674778E+01  0.4443003E+04 -0.3141593E+01  0.4781764E-05  0.3066733E+01
  0.9999999E-01  0.5813754E+04 -0.3141592E+01  0.6357556E-04 -0.1405031E+01  0.2729843E+04  0.1581680E+01  0.2042631E-02 -0.1874238E+01  0.1780739E+05 -0.3141592E+01  0.6485380E-04 -0.1102897E-01
  0.1500000E+00  0.1313087E+05 -0.3141583E+01  0.1088473E-02 -0.2788667E+01  0.6128280E+04  0.1594512E+01  0.4055684E-02  0.1775386E+01  0.4042171E+05 -0.3141583E+01  0.2253115E-03 -0.4657646E-01
  0.2000000E+00  0.2324342E+05 -0.3141541E+01  0.6581908E-03 -0.2402316E+01  0.1080129E+05  0.1611339E+01  0.5281014E-02 -0.3053353E+01  0.7168549E+05 -0.3141540E+01  0.1526356E-03 -0.3116598E+01
  0.2500000E+00  0.3614627E+05 -0.3141398E+01  0.2716227E-02 -0.1482203E+01  0.1662683E+05  0.1631297E+01  0.1100009E-01  0.1800298E+01  0.1119315E+06 -0.3141397E+01  0.1678467E-03  0.0000000E+00
  0.3000000E+00  0.5179205E+05 -0.3141030E+01  0.1581126E-02 -0.3093321E+01  0.2342746E+05  0.1653507E+01  0.1620739E-02  0.8386810E+00  0.1613598E+06 -0.3141026E+01  0.3738841E-03  0.1530493E-01
  0.3500000E+00  0.7003052E+05 -0.3140221E+01  0.9652508E-03  0.1618238E+01  0.3092232E+05  0.1677350E+01  0.6630466E-02  0.6186444E+00  0.2193865E+06 -0.3140212E+01  0.5193035E-03  0.3097504E+01
  0.4000001E+00  0.9081242E+05 -0.3138656E+01  0.4945702E-02  0.1235996E+01  0.3890535E+05  0.1701893E+01  0.7782042E-02  0.1566875E+01  0.2859746E+06 -0.3138634E+01  0.1041210E-03 -0.1717875E+01
  0.4499998E+00  0.1141903E+06 -0.3135902E+01  0.7107157E-02  0.2483492E+01  0.4704858E+05  0.1726723E+01  0.4331252E-01 -0.3645433E+00  0.3627491E+06 -0.3135865E+01  0.4055079E-03 -0.2084652E+00
  0.5000001E+00  0.1398472E+06 -0.3131400E+01  0.2024353E-01 -0.2799938E+01  0.5497343E+05  0.1751713E+01  0.8145505E-01  0.1522447E+01  0.4472082E+06 -0.3131324E+01  0.5214846E-03  0.3587707E+00
  0.5500002E+00  0.1681220E+06 -0.3124504E+01  0.1728079E-01  0.2688015E+01  0.6265554E+05  0.1775628E+01  0.4849739E-01  0.1432548E+01  0.5430614E+06 -0.3124388E+01  0.2081371E-02 -0.1880500E+00
  0.5999997E+00  0.1986760E+06 -0.3114450E+01  0.1329610E-01  0.5273310E+00  0.6981357E+05  0.1798504E+01  0.3959217E-01  0.6051059E+00  0.6484751E+06 -0.3114274E+01  0.2383499E-03  0.2446854E+01
  0.6499999E+00  0.2311778E+06 -0.3100415E+01  0.3931998E-01  0.8984190E+00  0.7590702E+05  0.1821276E+01  0.7908409E-01 -0.1537604E+01  0.7616344E+06 -0.3100118E+01  0.1010427E-02 -0.2596296E+00
  0.6999999E+00  0.2659036E+06 -0.3081635E+01  0.2400071E-01  0.5004757E+00  0.8148751E+05  0.1841622E+01  0.9676067E-01  0.6776963E+00  0.8874276E+06 -0.3081247E+01  0.5433500E-02 -0.2246813E-01
  0.7499999E+00  0.3019770E+06 -0.3057220E+01  0.2729525E-01  0.6719035E+00  0.8542326E+05  0.1862667E+01  0.9666138E-01 -0.4515047E+00  0.1020732E+07 -0.3056696E+01  0.3712624E-03 -0.1735945E+01
  0.8000000E+00  0.3386262E+06 -0.3026415E+01  0.7808504E-01 -0.4297771E+00  0.8873703E+05  0.1881369E+01  0.2053614E+00 -0.1134798E+00  0.1158355E+07 -0.3025636E+01  0.4889698E-02  0.3088518E+01
  0.8500000E+00  0.3755369E+06 -0.2988960E+01  0.2159602E-01  0.2768598E+01  0.9046771E+05  0.1899880E+01  0.1018993E+00 -0.4545399E+00  0.1303551E+07 -0.2987973E+01  0.3700846E-02  0.2996780E+01
  0.8999999E+00  0.4113704E+06 -0.2944357E+01  0.2354723E-01  0.2137140E+01  0.9119877E+05  0.1917355E+01  0.1083325E+00  0.2365756E+01  0.1450428E+07 -0.2943186E+01  0.3336480E-02  0.2985466E+01
  0.9499999E+00  0.4444568E+06 -0.2892433E+01  0.4412880E-01  0.3012606E+01  0.9099377E+05  0.1933262E+01  0.1579711E+00 -0.4978666E+00  0.1591882E+07 -0.2891006E+01  0.7143982E-03  0.1222025E+01
  0.1000000E+01  0.4725032E+06 -0.2833293E+01  0.4583416E-02 -0.1896100E+01  0.8929298E+05  0.1949112E+01  0.1643222E+00  0.1549509E+00  0.1717795E+07 -0.2831373E+01  0.2179928E-02  0.3112363E+00
  0.1050000E+01  0.4947735E+06 -0.2768699E+01  0.5484518E-01 -0.2602193E+01  0.8695094E+05  0.1964004E+01  0.1571635E+00 -0.7907531E+00  0.1828970E+07 -0.2766349E+01  0.1641455E-02  0.2883086E+01
  0.1100000E+01  0.5094970E+06 -0.2699504E+01  0.9305013E-01 -0.2944438E+01  0.8376043E+05  0.1977484E+01  0.6054125E-01  0.1263557E+00  0.1916902E+07 -0.2696753E+01  0.5906886E-02 -0.3014674E+01
  0.1150000E+01  0.5148105E+06 -0.2626657E+01  0.2677459E-01  0.2083015E+01  0.7953419E+05  0.1990179E+01  0.4430539E+00  0.9962753E-01  0.1971129E+07 -0.2623356E+01  0.5572028E-02  0.1372327E+01
  0.1200000E+01  0.5108690E+06 -0.2552950E+01  0.1988497E-01  0.1245891E+01  0.7492299E+05  0.2002357E+01  0.3483200E+00 -0.1892338E+00  0.1991910E+07 -0.2549104E+01  0.5803156E-02  0.3883187E+00
  0.1250000E+01  0.4975590E+06 -0.2479907E+01  0.1135083E-01 -0.2541079E+00  0.7009202E+05  0.2013684E+01  0.3958439E+00  0.1491530E+00  0.1977134E+07 -0.2475545E+01  0.9166304E-02 -0.1706221E+00
  0.1300000E+01  0.4753080E+06 -0.2408473E+01  0.3265579E-01 -0.1093043E+01  0.6455798E+05  0.2022578E+01  0.1090809E+00 -0.8128996E+00  0.1924820E+07 -0.2403460E+01  0.1859320E-02  0.4048918E+00
  0.1350000E+01  0.4461832E+06 -0.2340926E+01  0.2386674E-01 -0.1742987E+01  0.5892800E+05  0.2030991E+01  0.2225910E+00 -0.3060683E+01  0.1841353E+07 -0.2335178E+01  0.1364788E-02  0.1107149E+01
  0.1400000E+01  0.4109812E+06 -0.2277480E+01  0.1650198E-01  0.1600390E+01  0.5341320E+05  0.2038932E+01  0.1527332E+00 -0.2481846E+01  0.1729119E+07 -0.2271023E+01  0.2324350E-02 -0.3075898E+01
  0.1450000E+01  0.3717391E+06 -0.2219074E+01  0.6459334E-01  0.3305655E+00  0.4801213E+05  0.2045610E+01  0.1467373E+00 -0.5456805E+00  0.1594733E+07 -0.2211759E+01  0.2288818E-03 -0.1570796E+01
  0.1500000E+01  0.3295112E+06 -0.2165396E+01  0.3194496E-01 -0.2089707E+00  0.4265616E+05  0.2049759E+01  0.1798634E+00 -0.2992923E+01  0.1441435E+07 -0.2157128E+01  0.4593010E-02  0.1785051E+01
  0.1550000E+01  0.2861418E+06 -0.2116561E+01  0.8968266E-01 -0.2858806E+01  0.3752731E+05  0.2053145E+01  0.1787159E+00 -0.7768866E-01  0.1275341E+07 -0.2107057E+01  0.4516627E-02  0.1352860E+01
  0.1600000E+01  0.2421707E+06 -0.2072242E+01  0.3525408E-02  0.1780076E+01  0.3279145E+05  0.2056097E+01  0.7077953E+00 -0.3089128E+01  0.1099956E+07 -0.2061425E+01  0.2585363E-02  0.3011381E+01
  0.1650000E+01  0.1986989E+06 -0.2032392E+01  0.4962602E-01  0.5137102E-01  0.2846266E+05  0.2058389E+01  0.1351340E+00 -0.2955508E+01  0.9196971E+06 -0.2019826E+01  0.1287538E-02  0.1665748E+01
  0.1700000E+01  0.1563433E+06 -0.1995721E+01  0.4239665E-01  0.3099111E+01  0.2443627E+05  0.2058507E+01  0.4585446E+00 -0.3117997E+01  0.7367402E+06 -0.1980639E+01  0.5102554E-02 -0.1690700E+01
  0.1750000E+01  0.1154669E+06 -0.1961198E+01  0.7934629E-02 -0.3846135E-02  0.2081964E+05  0.2058488E+01  0.1149972E+00 -0.5124014E-01  0.5536569E+06 -0.1942390E+01  0.1297625E-02  0.8519663E+00
  0.1800000E+01  0.7663018E+05 -0.1927297E+01  0.1899520E-01 -0.8847807E-01  0.1763854E+05  0.2059080E+01  0.1624203E+00 -0.3022564E+01  0.3733361E+06 -0.1901758E+01  0.8738905E-03 -0.2930499E+01
  0.1850000E+01  0.3995999E+05 -0.1886182E+01  0.4645802E-01 -0.2102187E-01  0.1487677E+05  0.2061567E+01  0.9428172E-01 -0.2812399E+01  0.1972863E+06 -0.1843390E+01  0.5459150E-03 -0.2034444E+01
  0.1900000E+01  0.5843356E+04 -0.1665081E+01  0.4072925E-02  0.2805625E+01  0.1250897E+05  0.2066314E+01  0.1930589E+00 -0.2930562E+01  0.2986184E+05 -0.1412748E+01  0.1490058E-02  0.9600704E+00
  0.1950000E+01  0.2605164E+05  0.1212235E+01  0.1864994E-01  0.3081011E+01  0.1038749E+05  0.2072015E+01  0.2201082E+00  0.2878876E+01  0.1370592E+06  0.1171540E+01  0.1151609E-02  0.5585993E+00
  0.2000000E+01  0.5500152E+05  0.1257899E+01  0.4739666E-01 -0.1395295E+00  0.8699233E+04  0.2090803E+01  0.2633705E+00  0.3045124E+01  0.2906804E+06  0.1244030E+01  0.2200654E-02 -0.5880026E+00
  0.2050000E+01  0.8127566E+05  0.1282953E+01  0.2182167E-01  0.3049160E+01  0.7492614E+04  0.2145125E+01  0.1628924E+00 -0.2997871E+01  0.4344404E+06  0.1277367E+01  0.3194886E-02  0.1148766E+00
  0.2100000E+01  0.1046513E+06  0.1301698E+01  0.7876669E-02  0.7936171E+00  0.7258929E+04  0.2288790E+01  0.4749326E-01 -0.3086505E+01  0.5669236E+06  0.1300742E+01  0.8631675E-03 -0.1418971E+00
  0.2150000E+01  0.1252084E+06  0.1317246E+01  0.6974118E-02 -0.1759396E+00  0.1016564E+05  0.2583524E+01  0.7459454E-01  0.2709099E+01  0.6873268E+06  0.1319253E+01  0.2743189E-02  0.1007480E+01
  0.2200000E+01  0.1429082E+06  0.1330485E+01  0.8482693E-02 -0.2023181E+01  0.1058854E+05  0.4517092E-01  0.5299817E-01 -0.3128708E+01  0.7950056E+06  0.1334929E+01  0.7450290E-03  0.9600704E+00
  0.2250000E+01  0.1576924E+06  0.1343998E+01  0.1352876E-01  0.3010383E+01  0.2541418E+04  0.8768713E+00  0.4123084E-01 -0.4384622E+00  0.8879361E+06  0.1349741E+01  0.2484513E-02  0.1085174E+01
  0.2300000E+01  0.1693404E+06  0.1355523E+01  0.2066214E-01  0.2642600E+01  0.1778687E+04  0.1317891E+01  0.1756446E+00  0.4669224E-01  0.9659421E+06  0.1363477E+01  0.4319289E-02 -0.8253769E+00
  0.2350000E+01  0.1783954E+06  0.1367843E+01  0.1173098E-01 -0.7080619E+00  0.1384167E+04  0.1346674E+01  0.8258724E-01 -0.7286025E+00  0.1028608E+07  0.1376572E+01  0.5678648E-03  0.1034985E+01
  0.2400000E+01  0.1845341E+06  0.1379474E+01  0.1978627E-01  0.2464925E+01  0.1094598E+04  0.1280167E+01  0.1292527E+00  0.2671245E+01  0.1076001E+07  0.1389456E+01  0.7413087E-03 -0.1725793E+01
  0.2450000E+01  0.1878440E+06  0.1390399E+01  0.7806203E-02  0.2571753E+01  0.8638617E+03  0.1276579E+01  0.1604918E+00  0.5664634E+00  0.1107099E+07  0.1401947E+01  0.2385269E-02  0.1335127E+01
  0.2500000E+01  0.1884612E+06  0.1401994E+01  0.1793554E-01  0.2709720E+01  0.6654067E+03  0.1284778E+01  0.1036145E+00  0.1754763E+01  0.1122609E+07  0.1414978E+01  0.4920812E-03  0.1446441E+01
  0.2549999E+01  0.1861198E+06  0.1416591E+01  0.8636758E-02 -0.3536012E+00  0.4858160E+03  0.1381607E+01  0.1656849E+00  0.3573660E+00  0.1121997E+07  0.1430511E+01  0.9841623E-03  0.1051650E+01
  0.2600000E+01  0.1812799E+06  0.1437396E+01  0.4794272E-02  0.1948939E+01  0.3385127E+03  0.1451715E+01  0.1302453E+00  0.3106505E+01  0.1106076E+07  0.1452042E+01  0.3090573E-02  0.1729452E+01
  0.2650001E+01  0.1740233E+06  0.1470786E+01  0.9328001E-02  0.1346450E+01  0.2324444E+03  0.1555144E+01  0.4089762E-01  0.4409900E+00  0.1076165E+07  0.1487876E+01  0.3833086E-02 -0.1410883E+01
  0.2700000E+01  0.1634496E+06  0.1559194E+01  0.7883051E-02  0.2315122E+01  0.1343046E+03  0.1553228E+01  0.6062207E-01 -0.1382225E+01  0.1031845E+07  0.1577519E+01  0.2250865E-02 -0.7086263E+00
  0.2750000E+01  0.4724654E+05  0.2560641E+01  0.1038761E-01  0.2860266E+01  0.5819403E+02  0.1568359E+01  0.3601355E-01 -0.2776350E+01  0.4776853E+06  0.2610467E+01  0.4369452E-03 -0.1781890E+01
  0.2800000E+01  0.1391146E+06  0.1193173E+01  0.9158986E-02 -0.2567452E+01  0.2270490E+01 -0.9975603E+00  0.2133927E-01 -0.3513025E+00  0.8324974E+06  0.1212267E+01  0.5459150E-03 -0.2034444E+01
  0.2849999E+01  0.1278439E+06  0.1299633E+01  0.1408461E-01 -0.2794488E+01  0.5535293E+02 -0.1383461E+01  0.2371181E-01 -0.1615389E+00  0.7858445E+06  0.1320283E+01  0.1304783E-02 -0.1759018E+01
  0.2900000E+01  0.1136772E+06  0.1337061E+01  0.5272944E-02 -0.1408026E+01  0.1032631E+03 -0.1283078E+01  0.4443729E-01  0.1345952E+01  0.7060141E+06  0.1358972E+01  0.1688149E-02  0.1789465E+01
  0.2949999E+01  0.9807316E+05  0.1358424E+01  0.1887408E-02 -0.1172274E+01  0.1398961E+03 -0.1238222E+01  0.1137265E-01 -0.3088444E+01  0.6130157E+06  0.1380549E+01  0.1469921E-02 -0.8314123E-01
  0.3000000E+01  0.8114463E+05  0.1371959E+01  0.1297289E-02  0.1760118E+01  0.1705070E+03 -0.1198732E+01  0.5143099E-02 -0.5091066E+00  0.5110955E+06  0.1394938E+01  0.6823938E-03  0.2677945E+01
  0.3050000E+01  0.6385420E+05  0.1378956E+01  0.5148004E-03  0.1689637E+01  0.2243906E+03 -0.1164154E+01  0.8779715E-02 -0.2774399E+01  0.4056448E+06  0.1404829E+01  0.3585815E-03  0.1570796E+01
  0.3100000E+01  0.4678532E+05  0.1384294E+01  0.1015168E-02 -0.2468025E+01  0.2613535E+03 -0.9774616E+00  0.3175353E-02 -0.1067986E+01  0.2994178E+06  0.1412314E+01  0.7236270E-03 -0.2311448E+01
  0.3150000E+01  0.3021592E+05  0.1391612E+01  0.3078189E-02 -0.1511276E+01  0.2940360E+03 -0.6990370E+00  0.2492547E-01 -0.1192937E+00  0.1944640E+06  0.1420451E+01  0.1249568E-03  0.2926235E+01
  0.3199999E+01  0.1446671E+05  0.1397615E+01  0.3239071E-02  0.1717357E+01  0.4248316E+03 -0.3292156E+00  0.7653316E-01 -0.4265911E+00  0.9361840E+05  0.1427738E+01  0.2200654E-03 -0.5880026E+00
  0.3250000E+01  0.2034370E+03 -0.1571293E+01  0.8802615E-03 -0.9827937E+00  0.8745014E+03  0.6634820E-01  0.5921864E-01  0.1445264E+01  0.1332432E+04 -0.1531668E+01  0.6573687E-03 -0.3805064E+00
  0.3299999E+01  0.1349234E+05 -0.1726307E+01  0.5855102E-02 -0.1570083E+00  0.2185792E+04  0.1240581E+01  0.1834570E-01 -0.7147919E+00  0.8835246E+05 -0.1691320E+01  0.1464844E-02 -0.1570796E+01
  0.3349999E+01  0.2516135E+05 -0.1714829E+01  0.2939367E-02 -0.1790591E+01  0.7367397E+03  0.2768490E+01  0.1727125E-01 -0.2816565E+01  0.1657429E+06 -0.1679093E+01  0.1588087E-02 -0.1609239E+01
  0.3400000E+01  0.3485769E+05 -0.1700054E+01  0.4632242E-02  0.3217506E+00  0.2107259E+03 -0.2813131E+01  0.3685139E-01 -0.3026762E+01  0.2312614E+06 -0.1663811E+01  0.5033088E-03 -0.1815775E+01
  0.3450000E+01  0.4229250E+05 -0.1685088E+01  0.2188134E-02 -0.1399247E+00  0.1427177E+03 -0.2080684E+01  0.1374496E-01  0.2325802E+01  0.2829393E+06 -0.1645965E+01  0.1006618E-02  0.1815775E+01
  0.3500000E+01  0.4722949E+05 -0.1664240E+01  0.4067434E-02  0.4502256E+00  0.1273034E+03 -0.1782345E+01  0.2866278E-01 -0.2985242E+01  0.3193234E+06 -0.1621035E+01  0.3051758E-03  0.3141593E+01
  0.3549999E+01  0.4932712E+05 -0.1634566E+01  0.3029485E-02  0.2014841E-01  0.1371647E+03 -0.1565143E+01  0.1170115E-01 -0.1506263E+01  0.3379857E+06 -0.1584504E+01  0.6488126E-03 -0.2422763E+01
  0.3600001E+01  0.4770784E+05 -0.1579406E+01  0.3586302E-02  0.1477055E+01  0.5913136E+02 -0.1885538E+01  0.1970864E-01  0.8203816E-01  0.3340385E+06 -0.1520771E+01  0.5033088E-03 -0.2896614E+01
  0.3649999E+01  0.3907812E+05 -0.1457852E+01  0.4039979E-03 -0.1380808E+01  0.3599863E+02 -0.1727937E+01  0.1314561E-01  0.2656863E+01  0.2899401E+06 -0.1378521E+01  0.7381217E-03  0.1446441E+01
  0.3700001E+01  0.6603376E+04 -0.1763885E+01  0.1559684E-02  0.1037088E+01  0.1509958E+02 -0.1605198E+01  0.1294047E-01 -0.2013250E+00  0.9208103E+05 -0.1022625E+01  0.6103516E-04  0.0000000E+00
  0.3750000E+01  0.6227562E+05 -0.2628829E+01  0.4013961E-03 -0.1526493E+00  0.1304979E+02 -0.1739767E+01  0.2045685E-01  0.4631487E-01  0.3567772E+06 -0.2611568E+01  0.3452670E-03  0.7853982E+00
  0.3800000E+01  0.5841408E+05 -0.2173112E+01  0.2079902E-02 -0.2889497E+01  0.4285694E+02 -0.2089282E+01  0.4227621E-02  0.2349964E+01  0.3621737E+06 -0.2138971E+01  0.5033088E-03 -0.2896614E+01
  0.3850000E+01  0.4879922E+05 -0.2031272E+01  0.3360400E-02 -0.1616220E+01  0.6229113E+02 -0.2421956E+01  0.5118323E-02  0.1549926E+01  0.3099166E+06 -0.1990823E+01  0.4648299E-03  0.1975688E+01
  0.3900000E+01  0.3909573E+05 -0.1958290E+01  0.1203124E-02  0.2695891E+00  0.1065167E+04 -0.2155843E+01  0.1778932E-01 -0.1625062E+01  0.2515065E+06 -0.1916242E+01  0.2441406E-03 -0.1570796E+01
  0.3950000E+01  0.2908606E+05 -0.1924918E+01  0.2138358E-03  0.4461323E-01  0.1495716E+04 -0.2296058E+01  0.9302516E-02 -0.7788377E+00  0.1894348E+06 -0.1877392E+01  0.3005633E-03  0.1989021E+01
  0.4000001E+01  0.1944262E+05 -0.1906018E+01  0.1104291E-02 -0.8456421E+00  0.2337129E+04 -0.2397294E+01  0.3756451E-02  0.1354330E+01  0.1275102E+06 -0.1850039E+01  0.4910166E-03 -0.1446170E+01
