VARIABLES="w (rad/s)"
"abs(F   1   1)" "angle(F   1   1)"
"abs(F   1   2)" "angle(F   1   2)"
"abs(F   1   3)" "angle(F   1   3)"
"abs(F   1   4)" "angle(F   1   4)"
"abs(F   1   5)" "angle(F   1   5)"
"abs(F   1   6)" "angle(F   1   6)"
Zone t="Diffraction force - beta =   0.000",I=    40,F=POINT
  0.5000001E+00  0.1398472E+06 -0.3131400E+01  0.1406233E-01 -0.2773932E+01  0.5497343E+05  0.1751713E+01  0.8907965E-01  0.1534131E+01  0.4472082E+06 -0.3131324E+01  0.2756102E-03  0.8314123E-01
  0.5384617E+00  0.1614069E+06 -0.3126348E+01  0.5060773E-02  0.3460662E+00  0.6099385E+05  0.1769936E+01  0.4515554E-01 -0.1618122E+01  0.5200920E+06 -0.3126241E+01  0.3054513E-02  0.3099118E+01
  0.5769233E+00  0.1843013E+06 -0.3119534E+01  0.1353960E-01  0.2666353E+01  0.6650223E+05  0.1788406E+01  0.4646653E-01  0.2218763E+01  0.5987185E+06 -0.3119390E+01  0.1550401E-02 -0.1780929E+00
  0.6153844E+00  0.2085022E+06 -0.3110595E+01  0.1655268E-01  0.1561578E+01  0.7183225E+05  0.1805421E+01  0.2641645E-01 -0.2637636E+01  0.6823481E+06 -0.3110385E+01  0.1038046E-02  0.2940329E-01
  0.6538461E+00  0.2338000E+06 -0.3099152E+01  0.1001274E-01 -0.2083792E+00  0.7634537E+05  0.1822973E+01  0.3601431E-01 -0.5098969E+00  0.7709502E+06 -0.3098846E+01  0.2460406E-03  0.3017238E+01
  0.6923077E+00  0.2604578E+06 -0.3084869E+01  0.2214327E-01  0.1773395E+01  0.8063542E+05  0.1838781E+01  0.7591654E-01 -0.2587936E+01  0.8674658E+06 -0.3084496E+01  0.2626108E-02  0.3486958E-01
  0.7307692E+00  0.2879269E+06 -0.3067321E+01  0.3201913E-01 -0.2742248E+00  0.8399802E+05  0.1854783E+01  0.1360981E+00 -0.2682558E+01  0.9686152E+06 -0.3066861E+01  0.4170788E-02 -0.3042652E+01
  0.7692307E+00  0.3159849E+06 -0.3046149E+01  0.4571594E-02  0.2538835E+00  0.8675180E+05  0.1870215E+01  0.1452684E+00 -0.2918321E+01  0.1072938E+07 -0.3045539E+01  0.1228309E-02 -0.4636476E+00
  0.8076923E+00  0.3443191E+06 -0.3021102E+01  0.5573123E-01 -0.1488764E+00  0.8921686E+05  0.1883926E+01  0.6690681E-01  0.2215757E+01  0.1180387E+07 -0.3020289E+01  0.3575672E-02  0.3000299E+01
  0.8461539E+00  0.3726942E+06 -0.2992087E+01  0.6685829E-01  0.1732906E+00  0.9038101E+05  0.1898460E+01  0.8718120E-01 -0.1304421E+01  0.1292198E+07 -0.2991116E+01  0.4290841E-02  0.3049001E+01
  0.8846153E+00  0.4005347E+06 -0.2958858E+01  0.6036273E-01 -0.5123344E+00  0.9104109E+05  0.1912189E+01  0.2480243E+00 -0.1145126E+01  0.1405408E+07 -0.2957746E+01  0.4555637E-02  0.3010591E+01
  0.9230768E+00  0.4270780E+06 -0.2921301E+01  0.8446279E-01  0.3005272E+01  0.9134981E+05  0.1924708E+01  0.1510599E+00 -0.6319451E+00  0.1517064E+07 -0.2920048E+01  0.5280120E-02  0.3033010E+01
  0.9615384E+00  0.4512601E+06 -0.2879369E+01  0.6581900E-02  0.1140332E+01  0.9067553E+05  0.1936937E+01  0.1918901E+00 -0.1362547E+01  0.1622159E+07 -0.2877865E+01  0.5200204E-02 -0.2973550E+01
  0.1000000E+01  0.4725032E+06 -0.2833293E+01  0.4583416E-02 -0.1896100E+01  0.8929298E+05  0.1949112E+01  0.1643222E+00  0.1549509E+00  0.1717795E+07 -0.2831373E+01  0.2179928E-02  0.3112363E+00
  0.1038461E+01  0.4902449E+06 -0.2784045E+01  0.1476876E-01  0.1315951E+01  0.8753456E+05  0.1960670E+01  0.1311489E+00  0.3068461E+01  0.1805022E+07 -0.2781784E+01  0.5423676E-02 -0.1393606E+00
  0.1076923E+01  0.5037279E+06 -0.2731976E+01  0.4436820E-01  0.2630402E+01  0.8553489E+05  0.1971425E+01  0.7284072E-01 -0.1507071E+01  0.1880038E+07 -0.2729442E+01  0.3052454E-02  0.2738342E+01
  0.1115385E+01  0.5119418E+06 -0.2677354E+01  0.2022841E-01 -0.1154563E+01  0.8252192E+05  0.1981357E+01  0.1881146E+00 -0.1015825E+01  0.1936893E+07 -0.2674473E+01  0.1516159E-02  0.1066630E+01
  0.1153846E+01  0.5148588E+06 -0.2620988E+01  0.3112322E-01  0.3264017E+00  0.7918760E+05  0.1991149E+01  0.5694289E-01 -0.3038511E+01  0.1973985E+07 -0.2617643E+01  0.4340368E-02 -0.4510697E+00
  0.1192308E+01  0.5120314E+06 -0.2564254E+01  0.1098131E-01 -0.2436357E+01  0.7565290E+05  0.2000517E+01  0.1239909E+00  0.1366571E+01  0.1990810E+07 -0.2560496E+01  0.9632394E-03  0.7069080E+00
  0.1230769E+01  0.5037792E+06 -0.2507889E+01  0.6182516E-01 -0.4745749E+00  0.7199678E+05  0.2009515E+01  0.2731181E+00 -0.1723129E+00  0.1987395E+07 -0.2503769E+01  0.4704461E-02  0.2347020E+01
  0.1269231E+01  0.4901336E+06 -0.2452164E+01  0.6885140E-01 -0.3766173E+00  0.6796049E+05  0.2017147E+01  0.8297149E-01  0.1243521E+01  0.1961541E+07 -0.2447538E+01  0.8385673E-02  0.1424117E+00
  0.1307692E+01  0.4712974E+06 -0.2397812E+01  0.5438524E-01  0.5577666E+00  0.6368798E+05  0.2023927E+01  0.1049265E+00 -0.3736472E+00  0.1913966E+07 -0.2392684E+01  0.6893731E-02 -0.3525531E+00
  0.1346154E+01  0.4486831E+06 -0.2345999E+01  0.1613429E-01 -0.7355567E+00  0.5935897E+05  0.2030355E+01  0.1717587E-01  0.6353279E+00  0.1848947E+07 -0.2340305E+01  0.2020623E-02 -0.4366271E+00
  0.1384615E+01  0.4223430E+06 -0.2296534E+01  0.3176965E-01  0.3097151E+01  0.5509926E+05  0.2036526E+01  0.3363513E+00 -0.4160134E+00  0.1766372E+07 -0.2290305E+01  0.6242990E-02 -0.2117762E+00
  0.1423077E+01  0.3932688E+06 -0.2249917E+01  0.2484193E-01 -0.4117070E+00  0.5093921E+05  0.2042408E+01  0.3602921E+00 -0.3208666E+00  0.1669749E+07 -0.2243136E+01  0.1244878E-02  0.1373401E+01
  0.1461538E+01  0.3623316E+06 -0.2206291E+01  0.1186371E+00  0.1497390E+00  0.4673929E+05  0.2046564E+01  0.3545048E+00  0.7699307E-01  0.1561028E+07 -0.2198749E+01  0.2790482E-02 -0.2286540E+01
  0.1500000E+01  0.3295111E+06 -0.2165396E+01  0.7453901E-01 -0.2011400E-01  0.4265616E+05  0.2049758E+01  0.5866599E-01 -0.2829918E+01  0.1441435E+07 -0.2157128E+01  0.1505931E-02  0.2388441E+01
  0.1538461E+01  0.2961935E+06 -0.2127368E+01  0.3035534E-01 -0.3104512E+01  0.3868196E+05  0.2052522E+01  0.7001816E-01 -0.1902884E+01  0.1314466E+07 -0.2118147E+01  0.3778546E-02 -0.2488964E+00
  0.1576923E+01  0.2623778E+06 -0.2092101E+01  0.6334954E-01 -0.2983651E+01  0.3493248E+05  0.2054821E+01  0.2629497E+00  0.3050040E+01  0.1181601E+07 -0.2081911E+01  0.8933888E-03 -0.1433730E+01
  0.1615385E+01  0.2286923E+06 -0.2059483E+01  0.2990542E-01 -0.3014200E+01  0.3140915E+05  0.2056852E+01  0.4867461E-01 -0.1131826E+01  0.1044808E+07 -0.2048189E+01  0.4713953E-02 -0.1493031E+01
  0.1653846E+01  0.1954017E+06 -0.2029483E+01  0.1507409E-01 -0.4627422E+00  0.2814426E+05  0.2058530E+01  0.1727036E+00 -0.2979329E+01  0.9057045E+06 -0.2016745E+01  0.3227946E-02 -0.1838707E+01
  0.1692307E+01  0.1628149E+06 -0.2001163E+01  0.2526885E-02 -0.2219128E+01  0.2501613E+05  0.2058390E+01  0.1997879E+00 -0.1853133E+00  0.7649922E+06 -0.1986534E+01  0.4270717E-02  0.1030377E+01
  0.1730769E+01  0.1309186E+06 -0.1974272E+01  0.3683678E-01  0.3070285E+01  0.2218004E+05  0.2058745E+01  0.4878108E-01  0.1297068E+00  0.6238174E+06 -0.1957092E+01  0.1525879E-02 -0.1570796E+01
  0.1769231E+01  0.1002933E+06 -0.1948314E+01  0.1844928E-01 -0.3018879E+01  0.1953315E+05  0.2058426E+01  0.5288029E+00  0.8946988E-01  0.4839142E+06 -0.1927400E+01  0.2131866E-02  0.1158386E+01
  0.1807692E+01  0.7082673E+05 -0.1921821E+01  0.1513749E-01 -0.3131512E+01  0.1719226E+05  0.2059486E+01  0.5524722E+00  0.3137850E+01  0.3458924E+06 -0.1894684E+01  0.1511159E-02  0.2384758E+01
  0.1846154E+01  0.4269536E+05 -0.1890149E+01  0.1599124E-01  0.3139684E+01  0.1507365E+05  0.2061283E+01  0.5534323E-01  0.2801909E+00  0.2106154E+06 -0.1849663E+01  0.1469921E-02  0.3058451E+01
  0.1884615E+01  0.1601620E+05 -0.1820157E+01  0.5501634E-02  0.6989996E+00  0.1321011E+05  0.2064886E+01  0.1589742E+00 -0.3139121E+01  0.7941046E+05 -0.1723376E+01  0.1348311E-02 -0.9065989E-01
  0.1923077E+01  0.9367203E+04  0.1108775E+01  0.5992618E-01 -0.3065641E+01  0.1149862E+05  0.2068948E+01  0.2829976E+00  0.3121736E+01  0.5155145E+05  0.9912674E+00  0.4401308E-03  0.2158799E+01
  0.1961538E+01  0.3297606E+05  0.1227428E+01  0.1082406E-01  0.2682303E+00  0.9984299E+04  0.2076111E+01  0.3968833E-01 -0.2369533E+01  0.1733103E+06  0.1197195E+01  0.7117861E-03 -0.2111216E+01
  0.2000000E+01  0.5500160E+05  0.1257899E+01  0.4804072E-01 -0.1826944E+00  0.8699226E+04  0.2090803E+01  0.2066060E+00  0.3061930E+01  0.2906809E+06  0.1244031E+01  0.2240913E-02 -0.5123895E+00
