VARIABLES="Theta (rad)" "ABS(HKochin)" "ANGLE(HKochin)"
Zone t="Diffraction - beta =   0.000 at frequency  0.5000 rad/s",I=   181,F=POINT
  0.0000000E+00  0.1443513E+02  0.3100221E+01
  0.1745329E-01  0.1443703E+02  0.3100228E+01
  0.3490658E-01  0.1444429E+02  0.3100249E+01
  0.5235988E-01  0.1445843E+02  0.3100293E+01
  0.6981317E-01  0.1447281E+02  0.3100339E+01
  0.8726647E-01  0.1448488E+02  0.3100380E+01
  0.1047198E+00  0.1451420E+02  0.3100469E+01
  0.1221731E+00  0.1454760E+02  0.3100572E+01
  0.1396263E+00  0.1456567E+02  0.3100638E+01
  0.1570796E+00  0.1461187E+02  0.3100776E+01
  0.1745329E+00  0.1464398E+02  0.3100886E+01
  0.1919862E+00  0.1470353E+02  0.3101062E+01
  0.2094395E+00  0.1474760E+02  0.3101192E+01
  0.2268928E+00  0.1479620E+02  0.3101348E+01
  0.2443461E+00  0.1486178E+02  0.3101538E+01
  0.2617994E+00  0.1492496E+02  0.3101727E+01
  0.2792527E+00  0.1498818E+02  0.3101914E+01
  0.2967060E+00  0.1505813E+02  0.3102120E+01
  0.3141593E+00  0.1513329E+02  0.3102343E+01
  0.3316126E+00  0.1521198E+02  0.3102568E+01
  0.3490659E+00  0.1529571E+02  0.3102809E+01
  0.3665192E+00  0.1538638E+02  0.3103060E+01
  0.3839725E+00  0.1547689E+02  0.3103314E+01
  0.4014257E+00  0.1556419E+02  0.3103562E+01
  0.4188790E+00  0.1566907E+02  0.3103840E+01
  0.4363323E+00  0.1577752E+02  0.3104124E+01
  0.4537856E+00  0.1587062E+02  0.3104385E+01
  0.4712389E+00  0.1599077E+02  0.3104690E+01
  0.4886922E+00  0.1609809E+02  0.3104973E+01
  0.5061455E+00  0.1622927E+02  0.3105303E+01
  0.5235988E+00  0.1634677E+02  0.3105591E+01
  0.5410521E+00  0.1646784E+02  0.3105901E+01
  0.5585054E+00  0.1660478E+02  0.3106226E+01
  0.5759587E+00  0.1673903E+02  0.3106546E+01
  0.5934120E+00  0.1687344E+02  0.3106864E+01
  0.6108653E+00  0.1701354E+02  0.3107187E+01
  0.6283185E+00  0.1715819E+02  0.3107520E+01
  0.6457719E+00  0.1730597E+02  0.3107845E+01
  0.6632251E+00  0.1745795E+02  0.3108180E+01
  0.6806784E+00  0.1761583E+02  0.3108520E+01
  0.6981317E+00  0.1777324E+02  0.3108857E+01
  0.7155850E+00  0.1792779E+02  0.3109179E+01
  0.7330383E+00  0.1809777E+02  0.3109518E+01
  0.7504916E+00  0.1827024E+02  0.3109865E+01
  0.7679449E+00  0.1842836E+02  0.3110187E+01
  0.7853982E+00  0.1861093E+02  0.3110533E+01
  0.8028514E+00  0.1877930E+02  0.3110855E+01
  0.8203048E+00  0.1897294E+02  0.3111211E+01
  0.8377581E+00  0.1915164E+02  0.3111542E+01
  0.8552114E+00  0.1933263E+02  0.3111869E+01
  0.8726646E+00  0.1952767E+02  0.3112208E+01
  0.8901180E+00  0.1971997E+02  0.3112537E+01
  0.9075713E+00  0.1991189E+02  0.3112866E+01
  0.9250245E+00  0.2010826E+02  0.3113186E+01
  0.9424778E+00  0.2030794E+02  0.3113513E+01
  0.9599311E+00  0.2050993E+02  0.3113833E+01
  0.9773844E+00  0.2071516E+02  0.3114156E+01
  0.9948377E+00  0.2092457E+02  0.3114476E+01
  0.1012291E+01  0.2113286E+02  0.3114786E+01
  0.1029744E+01  0.2133870E+02  0.3115093E+01
  0.1047198E+01  0.2155747E+02  0.3115404E+01
  0.1064651E+01  0.2177724E+02  0.3115716E+01
  0.1082104E+01  0.2198414E+02  0.3116008E+01
  0.1099558E+01  0.2221108E+02  0.3116309E+01
  0.1117011E+01  0.2242688E+02  0.3116600E+01
  0.1134464E+01  0.2266083E+02  0.3116903E+01
  0.1151917E+01  0.2288304E+02  0.3117191E+01
  0.1169371E+01  0.2310532E+02  0.3117471E+01
  0.1186824E+01  0.2334020E+02  0.3117756E+01
  0.1204277E+01  0.2357082E+02  0.3118036E+01
  0.1221731E+01  0.2380042E+02  0.3118307E+01
  0.1239184E+01  0.2403431E+02  0.3118577E+01
  0.1256637E+01  0.2426918E+02  0.3118845E+01
  0.1274090E+01  0.2450555E+02  0.3119111E+01
  0.1291544E+01  0.2474357E+02  0.3119369E+01
  0.1308997E+01  0.2498389E+02  0.3119626E+01
  0.1326450E+01  0.2522288E+02  0.3119879E+01
  0.1343904E+01  0.2545907E+02  0.3120125E+01
  0.1361357E+01  0.2570517E+02  0.3120369E+01
  0.1378810E+01  0.2595028E+02  0.3120613E+01
  0.1396263E+01  0.2618421E+02  0.3120849E+01
  0.1413717E+01  0.2643428E+02  0.3121085E+01
  0.1431170E+01  0.2667459E+02  0.3121315E+01
  0.1448623E+01  0.2692758E+02  0.3121541E+01
  0.1466077E+01  0.2717084E+02  0.3121765E+01
  0.1483530E+01  0.2741264E+02  0.3121984E+01
  0.1500983E+01  0.2766333E+02  0.3122200E+01
  0.1518437E+01  0.2791023E+02  0.3122412E+01
  0.1535890E+01  0.2815573E+02  0.3122621E+01
  0.1553343E+01  0.2840283E+02  0.3122824E+01
  0.1570796E+01  0.2864982E+02  0.3123027E+01
  0.1588250E+01  0.2889718E+02  0.3123224E+01
  0.1605703E+01  0.2914459E+02  0.3123419E+01
  0.1623156E+01  0.2939225E+02  0.3123612E+01
  0.1640610E+01  0.2963802E+02  0.3123800E+01
  0.1658063E+01  0.2988117E+02  0.3123984E+01
  0.1675516E+01  0.3013070E+02  0.3124162E+01
  0.1692969E+01  0.3037748E+02  0.3124342E+01
  0.1710423E+01  0.3061563E+02  0.3124516E+01
  0.1727876E+01  0.3086395E+02  0.3124688E+01
  0.1745329E+01  0.3110416E+02  0.3124858E+01
  0.1762783E+01  0.3135219E+02  0.3125020E+01
  0.1780236E+01  0.3159264E+02  0.3125185E+01
  0.1797689E+01  0.3182985E+02  0.3125346E+01
  0.1815143E+01  0.3207243E+02  0.3125499E+01
  0.1832596E+01  0.3231098E+02  0.3125651E+01
  0.1850049E+01  0.3254884E+02  0.3125803E+01
  0.1867502E+01  0.3278440E+02  0.3125950E+01
  0.1884956E+01  0.3301934E+02  0.3126093E+01
  0.1902409E+01  0.3325335E+02  0.3126235E+01
  0.1919862E+01  0.3348604E+02  0.3126372E+01
  0.1937316E+01  0.3371616E+02  0.3126508E+01
  0.1954769E+01  0.3394556E+02  0.3126642E+01
  0.1972222E+01  0.3417102E+02  0.3126773E+01
  0.1989675E+01  0.3440015E+02  0.3126899E+01
  0.2007129E+01  0.3462482E+02  0.3127022E+01
  0.2024582E+01  0.3484268E+02  0.3127148E+01
  0.2042035E+01  0.3506599E+02  0.3127266E+01
  0.2059489E+01  0.3528260E+02  0.3127385E+01
  0.2076942E+01  0.3550198E+02  0.3127498E+01
  0.2094395E+01  0.3571601E+02  0.3127611E+01
  0.2111848E+01  0.3592514E+02  0.3127721E+01
  0.2129302E+01  0.3613642E+02  0.3127828E+01
  0.2146755E+01  0.3634362E+02  0.3127933E+01
  0.2164208E+01  0.3654977E+02  0.3128036E+01
  0.2181662E+01  0.3675162E+02  0.3128136E+01
  0.2199115E+01  0.3695140E+02  0.3128232E+01
  0.2216568E+01  0.3714968E+02  0.3128329E+01
  0.2234021E+01  0.3734459E+02  0.3128424E+01
  0.2251475E+01  0.3753616E+02  0.3128513E+01
  0.2268928E+01  0.3772600E+02  0.3128601E+01
  0.2286381E+01  0.3791218E+02  0.3128691E+01
  0.2303835E+01  0.3809878E+02  0.3128774E+01
  0.2321288E+01  0.3827938E+02  0.3128855E+01
  0.2338741E+01  0.3845495E+02  0.3128939E+01
  0.2356194E+01  0.3863223E+02  0.3129014E+01
  0.2373648E+01  0.3880411E+02  0.3129094E+01
  0.2391101E+01  0.3897396E+02  0.3129164E+01
  0.2408554E+01  0.3914073E+02  0.3129238E+01
  0.2426008E+01  0.3930097E+02  0.3129310E+01
  0.2443461E+01  0.3946081E+02  0.3129377E+01
  0.2460914E+01  0.3961651E+02  0.3129443E+01
  0.2478368E+01  0.3977089E+02  0.3129508E+01
  0.2495821E+01  0.3991991E+02  0.3129570E+01
  0.2513274E+01  0.4006524E+02  0.3129631E+01
  0.2530727E+01  0.4020868E+02  0.3129689E+01
  0.2548181E+01  0.4034800E+02  0.3129747E+01
  0.2565634E+01  0.4048180E+02  0.3129802E+01
  0.2583087E+01  0.4061383E+02  0.3129853E+01
  0.2600541E+01  0.4074215E+02  0.3129909E+01
  0.2617994E+01  0.4086858E+02  0.3129958E+01
  0.2635447E+01  0.4098817E+02  0.3130003E+01
  0.2652900E+01  0.4110477E+02  0.3130052E+01
  0.2670354E+01  0.4121831E+02  0.3130096E+01
  0.2687807E+01  0.4132849E+02  0.3130140E+01
  0.2705260E+01  0.4143342E+02  0.3130177E+01
  0.2722714E+01  0.4153641E+02  0.3130217E+01
  0.2740167E+01  0.4163218E+02  0.3130258E+01
  0.2757620E+01  0.4172559E+02  0.3130291E+01
  0.2775074E+01  0.4181667E+02  0.3130326E+01
  0.2792527E+01  0.4190320E+02  0.3130360E+01
  0.2809980E+01  0.4198442E+02  0.3130392E+01
  0.2827433E+01  0.4206144E+02  0.3130418E+01
  0.2844887E+01  0.4213595E+02  0.3130448E+01
  0.2862340E+01  0.4220604E+02  0.3130472E+01
  0.2879793E+01  0.4226971E+02  0.3130496E+01
  0.2897247E+01  0.4233076E+02  0.3130519E+01
  0.2914700E+01  0.4238908E+02  0.3130543E+01
  0.2932153E+01  0.4244406E+02  0.3130562E+01
  0.2949607E+01  0.4249120E+02  0.3130577E+01
  0.2967060E+01  0.4253636E+02  0.3130599E+01
  0.2984513E+01  0.4257632E+02  0.3130610E+01
  0.3001966E+01  0.4261402E+02  0.3130626E+01
  0.3019420E+01  0.4264468E+02  0.3130632E+01
  0.3036873E+01  0.4267394E+02  0.3130646E+01
  0.3054326E+01  0.4269589E+02  0.3130656E+01
  0.3071780E+01  0.4271383E+02  0.3130661E+01
  0.3089233E+01  0.4272898E+02  0.3130666E+01
  0.3106686E+01  0.4274159E+02  0.3130671E+01
  0.3124139E+01  0.4274757E+02  0.3130674E+01
  0.3141593E+01  0.4274908E+02  0.3130674E+01
Zone t="Diffraction - beta =   0.000 at frequency  0.5385 rad/s",I=   181,F=POINT
  0.0000000E+00  0.1245488E+02  0.3075013E+01
  0.1745329E-01  0.1245467E+02  0.3075020E+01
  0.3490658E-01  0.1246382E+02  0.3075064E+01
  0.5235988E-01  0.1247781E+02  0.3075150E+01
  0.6981317E-01  0.1249418E+02  0.3075251E+01
  0.8726647E-01  0.1252020E+02  0.3075398E+01
  0.1047198E+00  0.1255088E+02  0.3075572E+01
  0.1221731E+00  0.1258002E+02  0.3075747E+01
  0.1396263E+00  0.1262733E+02  0.3076018E+01
  0.1570796E+00  0.1266563E+02  0.3076238E+01
  0.1745329E+00  0.1272167E+02  0.3076553E+01
  0.1919862E+00  0.1276843E+02  0.3076825E+01
  0.2094395E+00  0.1283327E+02  0.3077179E+01
  0.2268928E+00  0.1289511E+02  0.3077529E+01
  0.2443461E+00  0.1296468E+02  0.3077908E+01
  0.2617994E+00  0.1304203E+02  0.3078327E+01
  0.2792527E+00  0.1312180E+02  0.3078753E+01
  0.2967060E+00  0.1320577E+02  0.3079200E+01
  0.3141593E+00  0.1329915E+02  0.3079680E+01
  0.3316126E+00  0.1339215E+02  0.3080164E+01
  0.3490659E+00  0.1349143E+02  0.3080671E+01
  0.3665192E+00  0.1360001E+02  0.3081208E+01
  0.3839725E+00  0.1370840E+02  0.3081738E+01
  0.4014257E+00  0.1382376E+02  0.3082298E+01
  0.4188790E+00  0.1394719E+02  0.3082886E+01
  0.4363323E+00  0.1406774E+02  0.3083451E+01
  0.4537856E+00  0.1420452E+02  0.3084073E+01
  0.4712389E+00  0.1433331E+02  0.3084652E+01
  0.4886922E+00  0.1447804E+02  0.3085286E+01
  0.5061455E+00  0.1461422E+02  0.3085881E+01
  0.5235988E+00  0.1476111E+02  0.3086507E+01
  0.5410521E+00  0.1491857E+02  0.3087160E+01
  0.5585054E+00  0.1507300E+02  0.3087787E+01
  0.5759587E+00  0.1523679E+02  0.3088440E+01
  0.5934120E+00  0.1540139E+02  0.3089083E+01
  0.6108653E+00  0.1557089E+02  0.3089734E+01
  0.6283185E+00  0.1574825E+02  0.3090392E+01
  0.6457719E+00  0.1592491E+02  0.3091038E+01
  0.6632251E+00  0.1610858E+02  0.3091693E+01
  0.6806784E+00  0.1629682E+02  0.3092346E+01
  0.6981317E+00  0.1648645E+02  0.3092998E+01
  0.7155850E+00  0.1668252E+02  0.3093648E+01
  0.7330383E+00  0.1688470E+02  0.3094304E+01
  0.7504916E+00  0.1708352E+02  0.3094934E+01
  0.7679449E+00  0.1729614E+02  0.3095591E+01
  0.7853982E+00  0.1750241E+02  0.3096221E+01
  0.8028514E+00  0.1772194E+02  0.3096863E+01
  0.8203048E+00  0.1793320E+02  0.3097481E+01
  0.8377581E+00  0.1815906E+02  0.3098107E+01
  0.8552114E+00  0.1838124E+02  0.3098720E+01
  0.8726646E+00  0.1860873E+02  0.3099329E+01
  0.8901180E+00  0.1884242E+02  0.3099936E+01
  0.9075713E+00  0.1907644E+02  0.3100532E+01
  0.9250245E+00  0.1931350E+02  0.3101123E+01
  0.9424778E+00  0.1955741E+02  0.3101711E+01
  0.9599311E+00  0.1979967E+02  0.3102289E+01
  0.9773844E+00  0.2004724E+02  0.3102859E+01
  0.9948377E+00  0.2029885E+02  0.3103427E+01
  0.1012291E+01  0.2055048E+02  0.3103976E+01
  0.1029744E+01  0.2080692E+02  0.3104528E+01
  0.1047198E+01  0.2106293E+02  0.3105063E+01
  0.1064651E+01  0.2132537E+02  0.3105595E+01
  0.1082104E+01  0.2159299E+02  0.3106125E+01
  0.1099558E+01  0.2185603E+02  0.3106638E+01
  0.1117011E+01  0.2212816E+02  0.3107152E+01
  0.1134464E+01  0.2239349E+02  0.3107644E+01
  0.1151917E+01  0.2266934E+02  0.3108138E+01
  0.1169371E+01  0.2294192E+02  0.3108620E+01
  0.1186824E+01  0.2321844E+02  0.3109094E+01
  0.1204277E+01  0.2349855E+02  0.3109565E+01
  0.1221731E+01  0.2377822E+02  0.3110022E+01
  0.1239184E+01  0.2406051E+02  0.3110474E+01
  0.1256637E+01  0.2434582E+02  0.3110919E+01
  0.1274090E+01  0.2463017E+02  0.3111353E+01
  0.1291544E+01  0.2491654E+02  0.3111783E+01
  0.1308997E+01  0.2520610E+02  0.3112200E+01
  0.1326450E+01  0.2549464E+02  0.3112615E+01
  0.1343904E+01  0.2578692E+02  0.3113022E+01
  0.1361357E+01  0.2607914E+02  0.3113418E+01
  0.1378810E+01  0.2637000E+02  0.3113806E+01
  0.1396263E+01  0.2666624E+02  0.3114191E+01
  0.1413717E+01  0.2695990E+02  0.3114566E+01
  0.1431170E+01  0.2725860E+02  0.3114937E+01
  0.1448623E+01  0.2755073E+02  0.3115294E+01
  0.1466077E+01  0.2784949E+02  0.3115649E+01
  0.1483530E+01  0.2814592E+02  0.3115996E+01
  0.1500983E+01  0.2844316E+02  0.3116337E+01
  0.1518437E+01  0.2874204E+02  0.3116672E+01
  0.1535890E+01  0.2903947E+02  0.3117000E+01
  0.1553343E+01  0.2933747E+02  0.3117321E+01
  0.1570796E+01  0.2963700E+02  0.3117634E+01
  0.1588250E+01  0.2993428E+02  0.3117942E+01
  0.1605703E+01  0.3023260E+02  0.3118244E+01
  0.1623156E+01  0.3053166E+02  0.3118539E+01
  0.1640610E+01  0.3082872E+02  0.3118828E+01
  0.1658063E+01  0.3112630E+02  0.3119113E+01
  0.1675516E+01  0.3142303E+02  0.3119391E+01
  0.1692969E+01  0.3171811E+02  0.3119662E+01
  0.1710423E+01  0.3201427E+02  0.3119929E+01
  0.1727876E+01  0.3230903E+02  0.3120190E+01
  0.1745329E+01  0.3260268E+02  0.3120445E+01
  0.1762783E+01  0.3289454E+02  0.3120695E+01
  0.1780236E+01  0.3318730E+02  0.3120939E+01
  0.1797689E+01  0.3347806E+02  0.3121181E+01
  0.1815143E+01  0.3376698E+02  0.3121417E+01
  0.1832596E+01  0.3405574E+02  0.3121643E+01
  0.1850049E+01  0.3434135E+02  0.3121869E+01
  0.1867502E+01  0.3462669E+02  0.3122091E+01
  0.1884956E+01  0.3491165E+02  0.3122303E+01
  0.1902409E+01  0.3519237E+02  0.3122516E+01
  0.1919862E+01  0.3547215E+02  0.3122720E+01
  0.1937316E+01  0.3575195E+02  0.3122921E+01
  0.1954769E+01  0.3602818E+02  0.3123117E+01
  0.1972222E+01  0.3630303E+02  0.3123312E+01
  0.1989675E+01  0.3657440E+02  0.3123499E+01
  0.2007129E+01  0.3684541E+02  0.3123684E+01
  0.2024582E+01  0.3711052E+02  0.3123861E+01
  0.2042035E+01  0.3737931E+02  0.3124038E+01
  0.2059489E+01  0.3764061E+02  0.3124210E+01
  0.2076942E+01  0.3790324E+02  0.3124377E+01
  0.2094395E+01  0.3816027E+02  0.3124542E+01
  0.2111848E+01  0.3841643E+02  0.3124701E+01
  0.2129302E+01  0.3867022E+02  0.3124859E+01
  0.2146755E+01  0.3892050E+02  0.3125010E+01
  0.2164208E+01  0.3916717E+02  0.3125159E+01
  0.2181662E+01  0.3941172E+02  0.3125304E+01
  0.2199115E+01  0.3965398E+02  0.3125443E+01
  0.2216568E+01  0.3989114E+02  0.3125584E+01
  0.2234021E+01  0.4012597E+02  0.3125720E+01
  0.2251475E+01  0.4035928E+02  0.3125849E+01
  0.2268928E+01  0.4058770E+02  0.3125978E+01
  0.2286381E+01  0.4081297E+02  0.3126102E+01
  0.2303835E+01  0.4103344E+02  0.3126225E+01
  0.2321288E+01  0.4125327E+02  0.3126343E+01
  0.2338741E+01  0.4146503E+02  0.3126455E+01
  0.2356194E+01  0.4167907E+02  0.3126569E+01
  0.2373648E+01  0.4188451E+02  0.3126676E+01
  0.2391101E+01  0.4209044E+02  0.3126786E+01
  0.2408554E+01  0.4228915E+02  0.3126889E+01
  0.2426008E+01  0.4248648E+02  0.3126988E+01
  0.2443461E+01  0.4267859E+02  0.3127087E+01
  0.2460914E+01  0.4286687E+02  0.3127181E+01
  0.2478368E+01  0.4304980E+02  0.3127271E+01
  0.2495821E+01  0.4323025E+02  0.3127359E+01
  0.2513274E+01  0.4340683E+02  0.3127446E+01
  0.2530727E+01  0.4357787E+02  0.3127531E+01
  0.2548181E+01  0.4374531E+02  0.3127610E+01
  0.2565634E+01  0.4390888E+02  0.3127687E+01
  0.2583087E+01  0.4406814E+02  0.3127764E+01
  0.2600541E+01  0.4422086E+02  0.3127836E+01
  0.2617994E+01  0.4437126E+02  0.3127907E+01
  0.2635447E+01  0.4451752E+02  0.3127978E+01
  0.2652900E+01  0.4465340E+02  0.3128039E+01
  0.2670354E+01  0.4479538E+02  0.3128101E+01
  0.2687807E+01  0.4492206E+02  0.3128161E+01
  0.2705260E+01  0.4505478E+02  0.3128220E+01
  0.2722714E+01  0.4517492E+02  0.3128275E+01
  0.2740167E+01  0.4529511E+02  0.3128328E+01
  0.2757620E+01  0.4540768E+02  0.3128379E+01
  0.2775074E+01  0.4551543E+02  0.3128426E+01
  0.2792527E+01  0.4561774E+02  0.3128473E+01
  0.2809980E+01  0.4571720E+02  0.3128516E+01
  0.2827433E+01  0.4581121E+02  0.3128556E+01
  0.2844887E+01  0.4589979E+02  0.3128597E+01
  0.2862340E+01  0.4598302E+02  0.3128632E+01
  0.2879793E+01  0.4606283E+02  0.3128665E+01
  0.2897247E+01  0.4613708E+02  0.3128698E+01
  0.2914700E+01  0.4620610E+02  0.3128728E+01
  0.2932153E+01  0.4626773E+02  0.3128755E+01
  0.2949607E+01  0.4632846E+02  0.3128781E+01
  0.2967060E+01  0.4637780E+02  0.3128801E+01
  0.2984513E+01  0.4643106E+02  0.3128824E+01
  0.3001966E+01  0.4647016E+02  0.3128840E+01
  0.3019420E+01  0.4651287E+02  0.3128860E+01
  0.3036873E+01  0.4654452E+02  0.3128873E+01
  0.3054326E+01  0.4657461E+02  0.3128886E+01
  0.3071780E+01  0.4659818E+02  0.3128896E+01
  0.3089233E+01  0.4661567E+02  0.3128902E+01
  0.3106686E+01  0.4662770E+02  0.3128909E+01
  0.3124139E+01  0.4663612E+02  0.3128911E+01
  0.3141593E+01  0.4663932E+02  0.3128911E+01
Zone t="Diffraction - beta =   0.000 at frequency  0.5769 rad/s",I=   181,F=POINT
  0.0000000E+00  0.1008905E+02  0.3029507E+01
  0.1745329E-01  0.1009509E+02  0.3029571E+01
  0.3490658E-01  0.1009978E+02  0.3029631E+01
  0.5235988E-01  0.1011925E+02  0.3029867E+01
  0.6981317E-01  0.1013960E+02  0.3030110E+01
  0.8726647E-01  0.1016897E+02  0.3030461E+01
  0.1047198E+00  0.1020198E+02  0.3030858E+01
  0.1221731E+00  0.1023883E+02  0.3031293E+01
  0.1396263E+00  0.1028767E+02  0.3031860E+01
  0.1570796E+00  0.1034176E+02  0.3032489E+01
  0.1745329E+00  0.1039916E+02  0.3033149E+01
  0.1919862E+00  0.1046229E+02  0.3033876E+01
  0.2094395E+00  0.1053712E+02  0.3034723E+01
  0.2268928E+00  0.1061565E+02  0.3035587E+01
  0.2443461E+00  0.1069765E+02  0.3036473E+01
  0.2617994E+00  0.1078834E+02  0.3037445E+01
  0.2792527E+00  0.1088012E+02  0.3038418E+01
  0.2967060E+00  0.1098604E+02  0.3039506E+01
  0.3141593E+00  0.1109079E+02  0.3040576E+01
  0.3316126E+00  0.1120687E+02  0.3041715E+01
  0.3490659E+00  0.1132161E+02  0.3042846E+01
  0.3665192E+00  0.1145047E+02  0.3044068E+01
  0.3839725E+00  0.1158003E+02  0.3045281E+01
  0.4014257E+00  0.1171812E+02  0.3046535E+01
  0.4188790E+00  0.1185935E+02  0.3047794E+01
  0.4363323E+00  0.1200433E+02  0.3049053E+01
  0.4537856E+00  0.1215941E+02  0.3050361E+01
  0.4712389E+00  0.1232088E+02  0.3051691E+01
  0.4886922E+00  0.1248476E+02  0.3053000E+01
  0.5061455E+00  0.1265308E+02  0.3054324E+01
  0.5235988E+00  0.1283230E+02  0.3055687E+01
  0.5410521E+00  0.1301474E+02  0.3057037E+01
  0.5585054E+00  0.1320033E+02  0.3058371E+01
  0.5759587E+00  0.1339353E+02  0.3059715E+01
  0.5934120E+00  0.1358743E+02  0.3061035E+01
  0.6108653E+00  0.1379393E+02  0.3062387E+01
  0.6283185E+00  0.1399894E+02  0.3063702E+01
  0.6457719E+00  0.1421397E+02  0.3065033E+01
  0.6632251E+00  0.1442743E+02  0.3066319E+01
  0.6806784E+00  0.1465322E+02  0.3067632E+01
  0.6981317E+00  0.1487909E+02  0.3068913E+01
  0.7155850E+00  0.1511227E+02  0.3070191E+01
  0.7330383E+00  0.1534768E+02  0.3071446E+01
  0.7504916E+00  0.1558654E+02  0.3072676E+01
  0.7679449E+00  0.1583394E+02  0.3073908E+01
  0.7853982E+00  0.1608539E+02  0.3075124E+01
  0.8028514E+00  0.1633873E+02  0.3076307E+01
  0.8203048E+00  0.1659640E+02  0.3077489E+01
  0.8377581E+00  0.1686216E+02  0.3078659E+01
  0.8552114E+00  0.1713068E+02  0.3079802E+01
  0.8726646E+00  0.1740113E+02  0.3080920E+01
  0.8901180E+00  0.1767745E+02  0.3082025E+01
  0.9075713E+00  0.1795400E+02  0.3083102E+01
  0.9250245E+00  0.1824056E+02  0.3084177E+01
  0.9424778E+00  0.1852526E+02  0.3085216E+01
  0.9599311E+00  0.1881766E+02  0.3086247E+01
  0.9773844E+00  0.1910819E+02  0.3087248E+01
  0.9948377E+00  0.1940837E+02  0.3088241E+01
  0.1012291E+01  0.1970769E+02  0.3089210E+01
  0.1029744E+01  0.2001268E+02  0.3090159E+01
  0.1047198E+01  0.2031836E+02  0.3091088E+01
  0.1064651E+01  0.2062725E+02  0.3091995E+01
  0.1082104E+01  0.2094340E+02  0.3092888E+01
  0.1099558E+01  0.2125860E+02  0.3093766E+01
  0.1117011E+01  0.2157566E+02  0.3094619E+01
  0.1134464E+01  0.2189625E+02  0.3095458E+01
  0.1151917E+01  0.2222211E+02  0.3096283E+01
  0.1169371E+01  0.2254958E+02  0.3097086E+01
  0.1186824E+01  0.2287770E+02  0.3097873E+01
  0.1204277E+01  0.2320952E+02  0.3098640E+01
  0.1221731E+01  0.2354058E+02  0.3099386E+01
  0.1239184E+01  0.2387857E+02  0.3100124E+01
  0.1256637E+01  0.2421457E+02  0.3100841E+01
  0.1274090E+01  0.2455481E+02  0.3101541E+01
  0.1291544E+01  0.2489296E+02  0.3102228E+01
  0.1308997E+01  0.2523779E+02  0.3102905E+01
  0.1326450E+01  0.2558072E+02  0.3103559E+01
  0.1343904E+01  0.2592672E+02  0.3104201E+01
  0.1361357E+01  0.2627235E+02  0.3104828E+01
  0.1378810E+01  0.2661959E+02  0.3105439E+01
  0.1396263E+01  0.2697006E+02  0.3106038E+01
  0.1413717E+01  0.2732034E+02  0.3106627E+01
  0.1431170E+01  0.2767220E+02  0.3107198E+01
  0.1448623E+01  0.2802158E+02  0.3107754E+01
  0.1466077E+01  0.2837444E+02  0.3108301E+01
  0.1483530E+01  0.2872840E+02  0.3108835E+01
  0.1500983E+01  0.2908122E+02  0.3109357E+01
  0.1518437E+01  0.2943548E+02  0.3109866E+01
  0.1535890E+01  0.2978862E+02  0.3110363E+01
  0.1553343E+01  0.3014419E+02  0.3110849E+01
  0.1570796E+01  0.3049751E+02  0.3111324E+01
  0.1588250E+01  0.3085238E+02  0.3111788E+01
  0.1605703E+01  0.3120465E+02  0.3112242E+01
  0.1623156E+01  0.3155928E+02  0.3112683E+01
  0.1640610E+01  0.3191159E+02  0.3113115E+01
  0.1658063E+01  0.3226463E+02  0.3113538E+01
  0.1675516E+01  0.3261565E+02  0.3113951E+01
  0.1692969E+01  0.3296716E+02  0.3114356E+01
  0.1710423E+01  0.3332103E+02  0.3114748E+01
  0.1727876E+01  0.3366803E+02  0.3115129E+01
  0.1745329E+01  0.3401759E+02  0.3115507E+01
  0.1762783E+01  0.3436279E+02  0.3115872E+01
  0.1780236E+01  0.3470853E+02  0.3116232E+01
  0.1797689E+01  0.3505413E+02  0.3116580E+01
  0.1815143E+01  0.3539717E+02  0.3116920E+01
  0.1832596E+01  0.3573896E+02  0.3117254E+01
  0.1850049E+01  0.3607842E+02  0.3117580E+01
  0.1867502E+01  0.3641741E+02  0.3117895E+01
  0.1884956E+01  0.3675370E+02  0.3118207E+01
  0.1902409E+01  0.3708795E+02  0.3118509E+01
  0.1919862E+01  0.3741948E+02  0.3118805E+01
  0.1937316E+01  0.3774990E+02  0.3119092E+01
  0.1954769E+01  0.3807709E+02  0.3119374E+01
  0.1972222E+01  0.3840270E+02  0.3119647E+01
  0.1989675E+01  0.3872452E+02  0.3119918E+01
  0.2007129E+01  0.3904639E+02  0.3120179E+01
  0.2024582E+01  0.3936585E+02  0.3120436E+01
  0.2042035E+01  0.3967893E+02  0.3120681E+01
  0.2059489E+01  0.3999312E+02  0.3120926E+01
  0.2076942E+01  0.4029993E+02  0.3121164E+01
  0.2094395E+01  0.4060487E+02  0.3121392E+01
  0.2111848E+01  0.4090849E+02  0.3121617E+01
  0.2129302E+01  0.4120798E+02  0.3121839E+01
  0.2146755E+01  0.4150439E+02  0.3122051E+01
  0.2164208E+01  0.4179807E+02  0.3122260E+01
  0.2181662E+01  0.4208715E+02  0.3122462E+01
  0.2199115E+01  0.4237368E+02  0.3122662E+01
  0.2216568E+01  0.4265531E+02  0.3122853E+01
  0.2234021E+01  0.4293427E+02  0.3123043E+01
  0.2251475E+01  0.4320824E+02  0.3123223E+01
  0.2268928E+01  0.4347867E+02  0.3123403E+01
  0.2286381E+01  0.4374536E+02  0.3123576E+01
  0.2303835E+01  0.4400718E+02  0.3123745E+01
  0.2321288E+01  0.4426801E+02  0.3123911E+01
  0.2338741E+01  0.4452433E+02  0.3124070E+01
  0.2356194E+01  0.4477175E+02  0.3124224E+01
  0.2373648E+01  0.4501977E+02  0.3124375E+01
  0.2391101E+01  0.4525927E+02  0.3124522E+01
  0.2408554E+01  0.4549374E+02  0.3124663E+01
  0.2426008E+01  0.4572667E+02  0.3124800E+01
  0.2443461E+01  0.4595422E+02  0.3124933E+01
  0.2460914E+01  0.4617686E+02  0.3125065E+01
  0.2478368E+01  0.4639608E+02  0.3125190E+01
  0.2495821E+01  0.4660801E+02  0.3125312E+01
  0.2513274E+01  0.4681611E+02  0.3125429E+01
  0.2530727E+01  0.4701947E+02  0.3125545E+01
  0.2548181E+01  0.4721891E+02  0.3125655E+01
  0.2565634E+01  0.4741053E+02  0.3125761E+01
  0.2583087E+01  0.4759844E+02  0.3125864E+01
  0.2600541E+01  0.4778143E+02  0.3125965E+01
  0.2617994E+01  0.4795802E+02  0.3126060E+01
  0.2635447E+01  0.4813306E+02  0.3126152E+01
  0.2652900E+01  0.4830212E+02  0.3126241E+01
  0.2670354E+01  0.4845993E+02  0.3126325E+01
  0.2687807E+01  0.4861866E+02  0.3126411E+01
  0.2705260E+01  0.4876761E+02  0.3126488E+01
  0.2722714E+01  0.4890945E+02  0.3126560E+01
  0.2740167E+01  0.4905126E+02  0.3126634E+01
  0.2757620E+01  0.4918368E+02  0.3126701E+01
  0.2775074E+01  0.4931131E+02  0.3126766E+01
  0.2792527E+01  0.4943508E+02  0.3126831E+01
  0.2809980E+01  0.4955040E+02  0.3126887E+01
  0.2827433E+01  0.4966266E+02  0.3126945E+01
  0.2844887E+01  0.4976637E+02  0.3126996E+01
  0.2862340E+01  0.4986679E+02  0.3127046E+01
  0.2879793E+01  0.4995879E+02  0.3127092E+01
  0.2897247E+01  0.5004628E+02  0.3127137E+01
  0.2914700E+01  0.5012726E+02  0.3127177E+01
  0.2932153E+01  0.5020211E+02  0.3127212E+01
  0.2949607E+01  0.5027572E+02  0.3127249E+01
  0.2967060E+01  0.5034187E+02  0.3127279E+01
  0.2984513E+01  0.5039500E+02  0.3127306E+01
  0.3001966E+01  0.5045020E+02  0.3127332E+01
  0.3019420E+01  0.5049375E+02  0.3127355E+01
  0.3036873E+01  0.5052991E+02  0.3127372E+01
  0.3054326E+01  0.5056381E+02  0.3127388E+01
  0.3071780E+01  0.5059187E+02  0.3127401E+01
  0.3089233E+01  0.5061279E+02  0.3127412E+01
  0.3106686E+01  0.5062986E+02  0.3127420E+01
  0.3124139E+01  0.5063715E+02  0.3127424E+01
  0.3141593E+01  0.5064194E+02  0.3127426E+01
Zone t="Diffraction - beta =   0.000 at frequency  0.6154 rad/s",I=   181,F=POINT
  0.0000000E+00  0.7407881E+01  0.2935942E+01
  0.1745329E-01  0.7413513E+01  0.2936094E+01
  0.3490658E-01  0.7422703E+01  0.2936380E+01
  0.5235988E-01  0.7441237E+01  0.2936943E+01
  0.6981317E-01  0.7464882E+01  0.2937644E+01
  0.8726647E-01  0.7496284E+01  0.2938566E+01
  0.1047198E+00  0.7536828E+01  0.2939764E+01
  0.1221731E+00  0.7581227E+01  0.2941041E+01
  0.1396263E+00  0.7636319E+01  0.2942618E+01
  0.1570796E+00  0.7698518E+01  0.2944366E+01
  0.1745329E+00  0.7765365E+01  0.2946217E+01
  0.1919862E+00  0.7839232E+01  0.2948215E+01
  0.2094395E+00  0.7922788E+01  0.2950439E+01
  0.2268928E+00  0.8012531E+01  0.2952765E+01
  0.2443461E+00  0.8110168E+01  0.2955237E+01
  0.2617994E+00  0.8214212E+01  0.2957819E+01
  0.2792527E+00  0.8324704E+01  0.2960468E+01
  0.2967060E+00  0.8444147E+01  0.2963265E+01
  0.3141593E+00  0.8566733E+01  0.2966056E+01
  0.3316126E+00  0.8700192E+01  0.2968997E+01
  0.3490659E+00  0.8836784E+01  0.2971922E+01
  0.3665192E+00  0.8981816E+01  0.2974917E+01
  0.3839725E+00  0.9133302E+01  0.2977942E+01
  0.4014257E+00  0.9291306E+01  0.2981008E+01
  0.4188790E+00  0.9455996E+01  0.2984080E+01
  0.4363323E+00  0.9627565E+01  0.2987174E+01
  0.4537856E+00  0.9807904E+01  0.2990296E+01
  0.4712389E+00  0.9994596E+01  0.2993404E+01
  0.4886922E+00  0.1018550E+02  0.2996485E+01
  0.5061455E+00  0.1038292E+02  0.2999534E+01
  0.5235988E+00  0.1058872E+02  0.3002590E+01
  0.5410521E+00  0.1080017E+02  0.3005612E+01
  0.5585054E+00  0.1101866E+02  0.3008609E+01
  0.5759587E+00  0.1124357E+02  0.3011573E+01
  0.5934120E+00  0.1147302E+02  0.3014476E+01
  0.6108653E+00  0.1171056E+02  0.3017359E+01
  0.6283185E+00  0.1195079E+02  0.3020158E+01
  0.6457719E+00  0.1220070E+02  0.3022949E+01
  0.6632251E+00  0.1245287E+02  0.3025657E+01
  0.6806784E+00  0.1271223E+02  0.3028325E+01
  0.6981317E+00  0.1297696E+02  0.3030934E+01
  0.7155850E+00  0.1324705E+02  0.3033499E+01
  0.7330383E+00  0.1352286E+02  0.3036007E+01
  0.7504916E+00  0.1380378E+02  0.3038452E+01
  0.7679449E+00  0.1409244E+02  0.3040869E+01
  0.7853982E+00  0.1438560E+02  0.3043211E+01
  0.8028514E+00  0.1468144E+02  0.3045496E+01
  0.8203048E+00  0.1498355E+02  0.3047731E+01
  0.8377581E+00  0.1529183E+02  0.3049905E+01
  0.8552114E+00  0.1560481E+02  0.3052042E+01
  0.8726646E+00  0.1592310E+02  0.3054120E+01
  0.8901180E+00  0.1624529E+02  0.3056143E+01
  0.9075713E+00  0.1657168E+02  0.3058116E+01
  0.9250245E+00  0.1690385E+02  0.3060036E+01
  0.9424778E+00  0.1723763E+02  0.3061898E+01
  0.9599311E+00  0.1757870E+02  0.3063720E+01
  0.9773844E+00  0.1792105E+02  0.3065486E+01
  0.9948377E+00  0.1826886E+02  0.3067213E+01
  0.1012291E+01  0.1861965E+02  0.3068888E+01
  0.1029744E+01  0.1897437E+02  0.3070520E+01
  0.1047198E+01  0.1933382E+02  0.3072108E+01
  0.1064651E+01  0.1969513E+02  0.3073645E+01
  0.1082104E+01  0.2006155E+02  0.3075151E+01
  0.1099558E+01  0.2043245E+02  0.3076613E+01
  0.1117011E+01  0.2081178E+02  0.3078054E+01
  0.1134464E+01  0.2117898E+02  0.3079417E+01
  0.1151917E+01  0.2155868E+02  0.3080765E+01
  0.1169371E+01  0.2194041E+02  0.3082073E+01
  0.1186824E+01  0.2232595E+02  0.3083348E+01
  0.1204277E+01  0.2271317E+02  0.3084584E+01
  0.1221731E+01  0.2310243E+02  0.3085790E+01
  0.1239184E+01  0.2349534E+02  0.3086960E+01
  0.1256637E+01  0.2388869E+02  0.3088097E+01
  0.1274090E+01  0.2428605E+02  0.3089208E+01
  0.1291544E+01  0.2468359E+02  0.3090282E+01
  0.1308997E+01  0.2508384E+02  0.3091332E+01
  0.1326450E+01  0.2548575E+02  0.3092350E+01
  0.1343904E+01  0.2588881E+02  0.3093347E+01
  0.1361357E+01  0.2629358E+02  0.3094311E+01
  0.1378810E+01  0.2669989E+02  0.3095247E+01
  0.1396263E+01  0.2711431E+02  0.3096165E+01
  0.1413717E+01  0.2751818E+02  0.3097052E+01
  0.1431170E+01  0.2792734E+02  0.3097919E+01
  0.1448623E+01  0.2833816E+02  0.3098757E+01
  0.1466077E+01  0.2875030E+02  0.3099576E+01
  0.1483530E+01  0.2916271E+02  0.3100374E+01
  0.1500983E+01  0.2957643E+02  0.3101151E+01