VARIABLES="Theta (rad)" "ABS(HKochin)" "ANGLE(HKochin)"
Zone t="Diffraction - beta =   0.000 at frequency  0.0500 rad/s",I=   181,F=POINT
  0.0000000E+00  0.3620535E+01 -0.3141540E+01
  0.1745329E-01  0.3634845E+01  0.3141582E+01
  0.3490658E-01  0.4268153E+01  0.3141579E+01
  0.5235988E-01  0.4111169E+01 -0.3141558E+01
  0.6981317E-01  0.3973840E+01  0.3141567E+01
  0.8726647E-01  0.3128437E+01  0.3141570E+01
  0.1047198E+00  0.3920185E+01  0.3141586E+01
  0.1221731E+00  0.3827308E+01  0.3141576E+01
  0.1396263E+00  0.3243088E+01  0.3141583E+01
  0.1570796E+00  0.3250904E+01  0.3141580E+01
  0.1745329E+00  0.3239556E+01  0.3141579E+01
  0.1919862E+00  0.3823450E+01 -0.3141590E+01
  0.2094395E+00  0.3931431E+01 -0.3141588E+01
  0.2268928E+00  0.3203743E+01  0.3141581E+01
  0.2443461E+00  0.3972880E+01 -0.3141565E+01
  0.2617994E+00  0.4119084E+01 -0.3141591E+01
  0.2792527E+00  0.4268852E+01 -0.3141573E+01
  0.2967060E+00  0.3623077E+01  0.3141580E+01
  0.3141593E+00  0.3618880E+01  0.3141587E+01
  0.3316126E+00  0.3645872E+01  0.3141578E+01
  0.3490659E+00  0.4271013E+01  0.3141582E+01
  0.3665192E+00  0.4100997E+01 -0.3141567E+01
  0.3839725E+00  0.3971711E+01  0.3141587E+01
  0.4014257E+00  0.3095003E+01 -0.3141582E+01
  0.4188790E+00  0.3899966E+01  0.3141577E+01
  0.4363323E+00  0.3834379E+01  0.3141538E+01
  0.4537856E+00  0.3243999E+01  0.3141589E+01
  0.4712389E+00  0.3247295E+01  0.3141544E+01
  0.4886922E+00  0.3233728E+01  0.3141576E+01
  0.5061455E+00  0.3823657E+01  0.3141575E+01
  0.5235988E+00  0.3932677E+01  0.3141531E+01
  0.5410521E+00  0.3314085E+01  0.3141578E+01
  0.5585054E+00  0.3968893E+01 -0.3141577E+01
  0.5759587E+00  0.4123918E+01 -0.3141567E+01
  0.5934120E+00  0.4272542E+01 -0.3141578E+01
  0.6108653E+00  0.3612050E+01  0.3141571E+01
  0.6283185E+00  0.3614353E+01  0.3141538E+01
  0.6457719E+00  0.3655262E+01 -0.3141578E+01
  0.6632251E+00  0.4276899E+01 -0.3141574E+01
  0.6806784E+00  0.4089792E+01 -0.3141540E+01
  0.6981317E+00  0.3966735E+01  0.3141540E+01
  0.7155850E+00  0.3107022E+01 -0.3141556E+01
  0.7330383E+00  0.3872272E+01 -0.3141593E+01
  0.7504916E+00  0.3844097E+01 -0.3141591E+01
  0.7679449E+00  0.3242214E+01  0.3141544E+01
  0.7853982E+00  0.3240288E+01 -0.3141584E+01
  0.8028514E+00  0.3226215E+01  0.3141570E+01
  0.8203048E+00  0.3826895E+01 -0.3141586E+01
  0.8377581E+00  0.3923523E+01  0.3141566E+01
  0.8552114E+00  0.3448067E+01 -0.3141553E+01
  0.8726646E+00  0.3962135E+01  0.3141500E+01
  0.8901180E+00  0.4125410E+01 -0.3141586E+01
  0.9075713E+00  0.4279562E+01  0.3141557E+01
  0.9250245E+00  0.3602577E+01 -0.3141556E+01
  0.9424778E+00  0.3607175E+01 -0.3141518E+01
  0.9599311E+00  0.3662139E+01  0.3141567E+01
  0.9773844E+00  0.4285287E+01  0.3141583E+01
  0.9948377E+00  0.4078223E+01 -0.3141582E+01
  0.1012291E+01  0.3959329E+01  0.3141568E+01
  0.1029744E+01  0.3163269E+01  0.3141579E+01
  0.1047198E+01  0.3840289E+01 -0.3141542E+01
  0.1064651E+01  0.3855217E+01  0.3141567E+01
  0.1082104E+01  0.3238032E+01  0.3141590E+01
  0.1099558E+01  0.3230811E+01 -0.3141585E+01
  0.1117011E+01  0.3217738E+01 -0.3141585E+01
  0.1134464E+01  0.3833677E+01 -0.3141582E+01
  0.1151917E+01  0.3904730E+01  0.3141534E+01
  0.1169371E+01  0.3593286E+01  0.3141553E+01
  0.1186824E+01  0.3953545E+01 -0.3141578E+01
  0.1204277E+01  0.4123281E+01  0.3141554E+01
  0.1221731E+01  0.4288379E+01  0.3141584E+01
  0.1239184E+01  0.3595726E+01  0.3141560E+01
  0.1256637E+01  0.3598197E+01  0.3141587E+01
  0.1274090E+01  0.3665951E+01  0.3141546E+01
  0.1291544E+01  0.4295301E+01  0.3141551E+01
  0.1308997E+01  0.4067868E+01  0.3141575E+01
  0.1326450E+01  0.3950238E+01  0.3141587E+01
  0.1343904E+01  0.3258285E+01 -0.3141592E+01
  0.1361357E+01  0.3806819E+01  0.3141557E+01
  0.1378810E+01  0.3866686E+01  0.3141587E+01
  0.1396263E+01  0.3231618E+01  0.3141584E+01
  0.1413717E+01  0.3219671E+01  0.3141552E+01
  0.1431170E+01  0.3209359E+01 -0.3141591E+01
  0.1448623E+01  0.3842906E+01  0.3141590E+01
  0.1466077E+01  0.3878450E+01  0.3141551E+01
  0.1483530E+01  0.3735001E+01 -0.3141575E+01
  0.1500983E+01  0.3943684E+01  0.3141558E+01
  0.1518437E+01  0.4117444E+01 -0.3141553E+01
  0.1535890E+01  0.4298618E+01  0.3141579E+01
  0.1553343E+01  0.3592146E+01  0.3141529E+01
  0.1570796E+01  0.3588282E+01 -0.3141579E+01
  0.1588250E+01  0.3665638E+01 -0.3141590E+01
  0.1605703E+01  0.4306062E+01  0.3141573E+01
  0.1623156E+01  0.4059403E+01  0.3141587E+01
  0.1640610E+01  0.3940285E+01  0.3141543E+01
  0.1658063E+01  0.3382586E+01  0.3141534E+01
  0.1675516E+01  0.3775560E+01  0.3141565E+01
  0.1692969E+01  0.3877573E+01 -0.3141580E+01
  0.1710423E+01  0.3224139E+01 -0.3141574E+01
  0.1727876E+01  0.3208000E+01  0.3141548E+01
  0.1745329E+01  0.3201702E+01 -0.3141533E+01
  0.1762783E+01  0.3853961E+01 -0.3141576E+01
  0.1780236E+01  0.3847269E+01 -0.3141569E+01
  0.1797689E+01  0.3859659E+01 -0.3141585E+01
  0.1815143E+01  0.3933692E+01  0.3141495E+01
  0.1832596E+01  0.4108763E+01  0.3141564E+01
  0.1850049E+01  0.4309296E+01 -0.3141561E+01
  0.1867502E+01  0.3591834E+01  0.3141563E+01
  0.1884956E+01  0.3578234E+01  0.3141573E+01
  0.1902409E+01  0.3662738E+01  0.3141581E+01
  0.1919862E+01  0.4316278E+01  0.3141536E+01
  0.1937316E+01  0.4053530E+01 -0.3141557E+01
  0.1954769E+01  0.3930790E+01  0.3141586E+01
  0.1972222E+01  0.3524305E+01  0.3141576E+01
  0.1989675E+01  0.3749148E+01 -0.3141578E+01
  0.2007129E+01  0.3886827E+01 -0.3141551E+01
  0.2024582E+01  0.3215706E+01 -0.3141588E+01
  0.2042035E+01  0.3197222E+01  0.3141536E+01
  0.2059489E+01  0.3195596E+01  0.3141591E+01
  0.2076942E+01  0.3865478E+01  0.3141529E+01
  0.2094395E+01  0.3814002E+01  0.3141514E+01
  0.2111848E+01  0.3954804E+01  0.3141543E+01
  0.2129302E+01  0.3924615E+01  0.3141566E+01
  0.2146755E+01  0.4098253E+01 -0.3141585E+01
  0.2164208E+01  0.4319156E+01  0.3141584E+01
  0.2181662E+01  0.3595904E+01  0.3141573E+01
  0.2199115E+01  0.3569446E+01  0.3141554E+01
  0.2216568E+01  0.3656106E+01  0.3141577E+01
  0.2234021E+01  0.4325078E+01 -0.3141582E+01
  0.2251475E+01  0.4051405E+01  0.3141564E+01
  0.2268928E+01  0.3922173E+01  0.3141563E+01
  0.2286381E+01  0.3669327E+01  0.3141591E+01
  0.2303835E+01  0.3730400E+01  0.3141579E+01
  0.2321288E+01  0.3893723E+01  0.3141559E+01
  0.2338741E+01  0.3207654E+01  0.3141586E+01
  0.2356194E+01  0.3187962E+01  0.3141585E+01
  0.2373648E+01  0.3191626E+01 -0.3141525E+01
  0.2391101E+01  0.3876749E+01  0.3141564E+01
  0.2408554E+01  0.3782081E+01  0.3141576E+01
  0.2426008E+01  0.4011267E+01 -0.3141558E+01
  0.2443461E+01  0.3917252E+01 -0.3141578E+01
  0.2460914E+01  0.4086692E+01  0.3141581E+01
  0.2478368E+01  0.4327229E+01  0.3141565E+01
  0.2495821E+01  0.3602928E+01  0.3141559E+01
  0.2513274E+01  0.3562495E+01 -0.3141547E+01
  0.2530727E+01  0.3646994E+01  0.3141543E+01
  0.2548181E+01  0.4331748E+01  0.3141564E+01
  0.2565634E+01  0.4052582E+01 -0.3141540E+01
  0.2583087E+01  0.3915557E+01  0.3141560E+01
  0.2600541E+01  0.3803699E+01 -0.3141579E+01
  0.2617994E+01  0.3721397E+01  0.3141543E+01
  0.2635447E+01  0.3896890E+01  0.3141569E+01
  0.2652900E+01  0.3200260E+01  0.3141555E+01
  0.2670354E+01  0.3181121E+01 -0.3141525E+01
  0.2687807E+01  0.3189963E+01 -0.3141575E+01
  0.2705260E+01  0.3886271E+01  0.3141569E+01
  0.2722714E+01  0.3754506E+01 -0.3141566E+01
  0.2740167E+01  0.4023378E+01  0.3141582E+01
  0.2757620E+01  0.3912315E+01 -0.3141579E+01
  0.2775074E+01  0.4075186E+01  0.3141565E+01
  0.2792527E+01  0.4332998E+01  0.3141549E+01
  0.2809980E+01  0.3612581E+01  0.3141576E+01
  0.2827433E+01  0.3557996E+01 -0.3141549E+01
  0.2844887E+01  0.3635525E+01 -0.3141534E+01
  0.2862340E+01  0.4335332E+01  0.3141586E+01
  0.2879793E+01  0.4057314E+01  0.3141513E+01
  0.2897247E+01  0.3911481E+01  0.3141589E+01
  0.2914700E+01  0.3914273E+01 -0.3141561E+01
  0.2932153E+01  0.3722431E+01  0.3141545E+01
  0.2949607E+01  0.3896767E+01 -0.3141576E+01
  0.2967060E+01  0.3194674E+01  0.3141578E+01
  0.2984513E+01  0.3177771E+01 -0.3141585E+01
  0.3001966E+01  0.3191098E+01 -0.3141557E+01
  0.3019420E+01  0.3893004E+01 -0.3141569E+01
  0.3036873E+01  0.3733825E+01 -0.3141578E+01
  0.3054326E+01  0.3990242E+01  0.3141515E+01
  0.3071780E+01  0.3910408E+01  0.3141557E+01
  0.3089233E+01  0.4065213E+01  0.3141592E+01
  0.3106686E+01  0.4335738E+01 -0.3141568E+01
  0.3124139E+01  0.3623816E+01  0.3141566E+01
  0.3141593E+01  0.3556558E+01 -0.3141588E+01
Zone t="Diffraction - beta =   0.000 at frequency  0.1000 rad/s",I=   181,F=POINT
  0.0000000E+00  0.7780168E+01  0.3141567E+01
  0.1745329E-01  0.6971372E+01  0.3141533E+01
  0.3490658E-01  0.7372427E+01  0.3141556E+01
  0.5235988E-01  0.7613122E+01  0.3141552E+01
  0.6981317E-01  0.7276842E+01  0.3141546E+01
  0.8726647E-01  0.7465819E+01  0.3141558E+01
  0.1047198E+00  0.7332437E+01  0.3141555E+01
  0.1221731E+00  0.7466873E+01  0.3141550E+01
  0.1396263E+00  0.7472793E+01  0.3141554E+01
  0.1570796E+00  0.7361723E+01  0.3141560E+01
  0.1745329E+00  0.7485140E+01  0.3141572E+01
  0.1919862E+00  0.7480444E+01  0.3141556E+01
  0.2094395E+00  0.7343737E+01  0.3141549E+01
  0.2268928E+00  0.7467625E+01  0.3141559E+01
  0.2443461E+00  0.7287894E+01  0.3141536E+01
  0.2617994E+00  0.7617741E+01  0.3141557E+01
  0.2792527E+00  0.7386858E+01  0.3141557E+01
  0.2967060E+00  0.6986384E+01  0.3141551E+01
  0.3141593E+00  0.7781357E+01  0.3141529E+01
  0.3316126E+00  0.6998651E+01  0.3141549E+01
  0.3490659E+00  0.7380362E+01  0.3141544E+01
  0.3665192E+00  0.7616121E+01  0.3141557E+01
  0.3839725E+00  0.7281170E+01  0.3141555E+01
  0.4014257E+00  0.7472110E+01  0.3141557E+01
  0.4188790E+00  0.7346324E+01  0.3141536E+01
  0.4363323E+00  0.7471066E+01  0.3141558E+01
  0.4537856E+00  0.7476146E+01  0.3141551E+01
  0.4712389E+00  0.7386644E+01  0.3141552E+01
  0.4886922E+00  0.7512213E+01  0.3141561E+01
  0.5061455E+00  0.7510555E+01  0.3141549E+01
  0.5235988E+00  0.7378964E+01  0.3141556E+01
  0.5410521E+00  0.7477482E+01  0.3141559E+01
  0.5585054E+00  0.7313501E+01  0.3141548E+01
  0.5759587E+00  0.7629608E+01  0.3141553E+01
  0.5934120E+00  0.7422179E+01  0.3141545E+01
  0.6108653E+00  0.7043435E+01  0.3141547E+01
  0.6283185E+00  0.7784679E+01  0.3141550E+01
  0.6457719E+00  0.7066297E+01  0.3141544E+01
  0.6632251E+00  0.7409671E+01  0.3141556E+01
  0.6806784E+00  0.7626574E+01  0.3141576E+01
  0.6981317E+00  0.7300678E+01  0.3141556E+01
  0.7155850E+00  0.7485939E+01  0.3141546E+01
  0.7330383E+00  0.7383502E+01  0.3141549E+01
  0.7504916E+00  0.7492733E+01  0.3141548E+01
  0.7679449E+00  0.7494952E+01  0.3141535E+01
  0.7853982E+00  0.7434041E+01  0.3141554E+01
  0.8028514E+00  0.7551166E+01  0.3141557E+01
  0.8203048E+00  0.7553962E+01  0.3141550E+01
  0.8377581E+00  0.7434685E+01  0.3141551E+01
  0.8552114E+00  0.7494227E+01  0.3141556E+01
  0.8726646E+00  0.7351005E+01  0.3141560E+01
  0.8901180E+00  0.7647646E+01  0.3141547E+01
  0.9075713E+00  0.7474978E+01  0.3141552E+01
  0.9250245E+00  0.7135841E+01  0.3141549E+01
  0.9424778E+00  0.7789840E+01  0.3141559E+01
  0.9599311E+00  0.7167604E+01  0.3141539E+01
  0.9773844E+00  0.7457810E+01  0.3141551E+01
  0.9948377E+00  0.7643359E+01  0.3141550E+01
  0.1012291E+01  0.7333429E+01  0.3141553E+01
  0.1029744E+01  0.7505825E+01  0.3141569E+01
  0.1047198E+01  0.7440823E+01  0.3141550E+01
  0.1064651E+01  0.7529450E+01  0.3141558E+01
  0.1082104E+01  0.7527383E+01  0.3141547E+01
  0.1099558E+01  0.7499508E+01  0.3141546E+01
  0.1117011E+01  0.7598143E+01  0.3141539E+01
  0.1134464E+01  0.7606670E+01  0.3141542E+01
  0.1151917E+01  0.7505251E+01  0.3141536E+01
  0.1169371E+01  0.7516237E+01  0.3141570E+01
  0.1186824E+01  0.7396807E+01  0.3141552E+01
  0.1204277E+01  0.7669866E+01  0.3141556E+01
  0.1221731E+01  0.7539892E+01  0.3141547E+01
  0.1239184E+01  0.7255135E+01  0.3141542E+01
  0.1256637E+01  0.7796362E+01  0.3141573E+01
  0.1274090E+01  0.7292413E+01  0.3141550E+01
  0.1291544E+01  0.7519791E+01  0.3141549E+01
  0.1308997E+01  0.7664901E+01  0.3141558E+01
  0.1326450E+01  0.7376350E+01  0.3141550E+01
  0.1343904E+01  0.7529954E+01  0.3141552E+01
  0.1361357E+01  0.7512732E+01  0.3141557E+01
  0.1378810E+01  0.7577654E+01  0.3141558E+01
  0.1396263E+01  0.7570214E+01  0.3141558E+01
  0.1413717E+01  0.7576328E+01  0.3141556E+01
  0.1431170E+01  0.7648672E+01  0.3141560E+01
  0.1448623E+01  0.7663556E+01  0.3141552E+01
  0.1466077E+01  0.7584178E+01  0.3141562E+01
  0.1483530E+01  0.7541725E+01  0.3141566E+01
  0.1500983E+01  0.7446624E+01  0.3141570E+01
  0.1518437E+01  0.7694099E+01  0.3141558E+01
  0.1535890E+01  0.7610810E+01  0.3141545E+01
  0.1553343E+01  0.7389708E+01  0.3141554E+01
  0.1570796E+01  0.7803439E+01  0.3141553E+01
  0.1588250E+01  0.7428911E+01  0.3141540E+01
  0.1605703E+01  0.7589711E+01  0.3141559E+01
  0.1623156E+01  0.7689004E+01  0.3141551E+01
  0.1640610E+01  0.7425140E+01  0.3141537E+01
  0.1658063E+01  0.7556085E+01  0.3141553E+01
  0.1675516E+01  0.7591872E+01  0.3141554E+01
  0.1692969E+01  0.7632772E+01  0.3141563E+01
  0.1710423E+01  0.7619238E+01  0.3141536E+01
  0.1727876E+01  0.7657109E+01  0.3141551E+01
  0.1745329E+01  0.7697857E+01  0.3141554E+01
  0.1762783E+01  0.7718918E+01  0.3141563E+01
  0.1780236E+01  0.7663385E+01  0.3141550E+01
  0.1797689E+01  0.7567787E+01  0.3141554E+01
  0.1815143E+01  0.7495025E+01  0.3141562E+01
  0.1832596E+01  0.7718100E+01  0.3141549E+01
  0.1850049E+01  0.7680767E+01  0.3141565E+01
  0.1867502E+01  0.7526345E+01  0.3141550E+01
  0.1884956E+01  0.7810477E+01  0.3141552E+01
  0.1902409E+01  0.7563729E+01  0.3141565E+01
  0.1919862E+01  0.7660715E+01  0.3141562E+01
  0.1937316E+01  0.7713169E+01  0.3141559E+01
  0.1954769E+01  0.7474822E+01  0.3141558E+01
  0.1972222E+01  0.7581483E+01  0.3141560E+01
  0.1989675E+01  0.7670707E+01  0.3141546E+01
  0.2007129E+01  0.7689465E+01  0.3141563E+01
  0.2024582E+01  0.7669657E+01  0.3141556E+01
  0.2042035E+01  0.7733876E+01  0.3141554E+01
  0.2059489E+01  0.7740686E+01  0.3141541E+01
  0.2076942E+01  0.7767267E+01  0.3141552E+01
  0.2094395E+01  0.7735209E+01  0.3141563E+01
  0.2111848E+01  0.7592091E+01  0.3141546E+01
  0.2129302E+01  0.7537957E+01  0.3141555E+01
  0.2146755E+01  0.7739503E+01  0.3141555E+01
  0.2164208E+01  0.7742967E+01  0.3141545E+01
  0.2181662E+01  0.7651443E+01  0.3141567E+01
  0.2199115E+01  0.7816799E+01  0.3141552E+01
  0.2216568E+01  0.7683376E+01  0.3141550E+01
  0.2234021E+01  0.7725759E+01  0.3141547E+01
  0.2251475E+01  0.7735418E+01  0.3141558E+01
  0.2268928E+01  0.7520925E+01  0.3141557E+01
  0.2286381E+01  0.7603669E+01  0.3141564E+01
  0.2303835E+01  0.7741439E+01  0.3141550E+01
  0.2321288E+01  0.7742174E+01  0.3141563E+01
  0.2338741E+01  0.7716790E+01  0.3141551E+01
  0.2356194E+01  0.7799208E+01  0.3141550E+01
  0.2373648E+01  0.7773150E+01  0.3141546E+01
  0.2391101E+01  0.7804043E+01  0.3141557E+01
  0.2408554E+01  0.7792711E+01  0.3141548E+01
  0.2426008E+01  0.7612107E+01  0.3141560E+01
  0.2443461E+01  0.7571015E+01  0.3141564E+01
  0.2460914E+01  0.7756249E+01  0.3141560E+01
  0.2478368E+01  0.7790937E+01  0.3141554E+01
  0.2495821E+01  0.7753117E+01  0.3141546E+01
  0.2513274E+01  0.7821800E+01  0.3141555E+01
  0.2530727E+01  0.7776303E+01  0.3141566E+01
  0.2548181E+01  0.7778815E+01  0.3141539E+01
  0.2565634E+01  0.7753160E+01  0.3141548E+01
  0.2583087E+01  0.7558527E+01  0.3141562E+01
  0.2600541E+01  0.7620588E+01  0.3141569E+01
  0.2617994E+01  0.7797239E+01  0.3141552E+01
  0.2635447E+01  0.7785588E+01  0.3141557E+01
  0.2652900E+01  0.7755762E+01  0.3141552E+01
  0.2670354E+01  0.7846543E+01  0.3141551E+01
  0.2687807E+01  0.7791702E+01  0.3141566E+01
  0.2705260E+01  0.7825397E+01  0.3141557E+01
  0.2722714E+01  0.7830214E+01  0.3141551E+01
  0.2740167E+01  0.7626224E+01  0.3141571E+01
  0.2757620E+01  0.7590697E+01  0.3141548E+01
  0.2775074E+01  0.7766411E+01  0.3141551E+01
  0.2792527E+01  0.7820312E+01  0.3141554E+01
  0.2809980E+01  0.7821374E+01  0.3141548E+01
  0.2827433E+01  0.7824954E+01  0.3141554E+01
  0.2844887E+01  0.7833556E+01  0.3141555E+01
  0.2862340E+01  0.7813861E+01  0.3141557E+01
  0.2879793E+01  0.7765009E+01  0.3141549E+01
  0.2897247E+01  0.7584278E+01  0.3141562E+01
  0.2914700E+01  0.7630707E+01  0.3141562E+01
  0.2932153E+01  0.7832480E+01  0.3141565E+01
  0.2949607E+01  0.7815741E+01  0.3141560E+01
  0.2967060E+01  0.7782758E+01  0.3141562E+01
  0.2984513E+01  0.7871567E+01  0.3141546E+01
  0.3001966E+01  0.7795092E+01  0.3141554E+01
  0.3019420E+01  0.7829310E+01  0.3141561E+01
  0.3036873E+01  0.7843835E+01  0.3141559E+01
  0.3054326E+01  0.7632611E+01  0.3141558E+01
  0.3071780E+01  0.7595263E+01  0.3141548E+01
  0.3089233E+01  0.7769575E+01  0.3141550E+01
  0.3106686E+01  0.7828279E+01  0.3141563E+01
  0.3124139E+01  0.7848818E+01  0.3141556E+01
  0.3141593E+01  0.7826099E+01  0.3141547E+01
Zone t="Diffraction - beta =   0.000 at frequency  0.1500 rad/s",I=   181,F=POINT
  0.0000000E+00  0.1079337E+02  0.3141388E+01
  0.1745329E-01  0.1080372E+02  0.3141386E+01
  0.3490658E-01  0.1082939E+02  0.3141383E+01
  0.5235988E-01  0.1072829E+02  0.3141379E+01
  0.6981317E-01  0.1082130E+02  0.3141381E+01
  0.8726647E-01  0.1069466E+02  0.3141391E+01
  0.1047198E+00  0.1087474E+02  0.3141387E+01
  0.1221731E+00  0.1071787E+02  0.3141382E+01
  0.1396263E+00  0.1085163E+02  0.3141380E+01
  0.1570796E+00  0.1085434E+02  0.3141385E+01
  0.1745329E+00  0.1085313E+02  0.3141383E+01
  0.1919862E+00  0.1072384E+02  0.3141385E+01
  0.2094395E+00  0.1088031E+02  0.3141387E+01
  0.2268928E+00  0.1070615E+02  0.3141384E+01
  0.2443461E+00  0.1083257E+02  0.3141389E+01
  0.2617994E+00  0.1074378E+02  0.3141386E+01
  0.2792527E+00  0.1084813E+02  0.3141387E+01
  0.2967060E+00  0.1082241E+02  0.3141380E+01
  0.3141593E+00  0.1081633E+02  0.3141386E+01
  0.3316126E+00  0.1083158E+02  0.3141378E+01
  0.3490659E+00  0.1085728E+02  0.3141387E+01
  0.3665192E+00  0.1076287E+02  0.3141382E+01
  0.3839725E+00  0.1085590E+02  0.3141388E+01
  0.4014257E+00  0.1073609E+02  0.3141393E+01
  0.4188790E+00  0.1091362E+02  0.3141381E+01
  0.4363323E+00  0.1075893E+02  0.3141385E+01
  0.4537856E+00  0.1089475E+02  0.3141382E+01
  0.4712389E+00  0.1089735E+02  0.3141385E+01
  0.4886922E+00  0.1089928E+02  0.3141385E+01
  0.5061455E+00  0.1077674E+02  0.3141385E+01
  0.5235988E+00  0.1092998E+02  0.3141382E+01
  0.5410521E+00  0.1077016E+02  0.3141389E+01
  0.5585054E+00  0.1088882E+02  0.3141395E+01
  0.5759587E+00  0.1080681E+02  0.3141398E+01
  0.5934120E+00  0.1091165E+02  0.3141387E+01
  0.6108653E+00  0.1088633E+02  0.3141393E+01
  0.6283185E+00  0.1088340E+02  0.3141385E+01
  0.6457719E+00  0.1090363E+02  0.3141376E+01
  0.6632251E+00  0.1092940E+02  0.3141396E+01
  0.6806784E+00  0.1084354E+02  0.3141388E+01
  0.6981317E+00  0.1093321E+02  0.3141387E+01
  0.7155850E+00  0.1082681E+02  0.3141388E+01
  0.7330383E+00  0.1099335E+02  0.3141392E+01
  0.7504916E+00  0.1084170E+02  0.3141389E+01
  0.7679449E+00  0.1097832E+02  0.3141393E+01
  0.7853982E+00  0.1097907E+02  0.3141389E+01
  0.8028514E+00  0.1098536E+02  0.3141390E+01
  0.8203048E+00  0.1086918E+02  0.3141382E+01
  0.8377581E+00  0.1101867E+02  0.3141389E+01
  0.8552114E+00  0.1087977E+02  0.3141386E+01
  0.8726646E+00  0.1098435E+02  0.3141394E+01
  0.8901180E+00  0.1091259E+02  0.3141388E+01
  0.9075713E+00  0.1101405E+02  0.3141393E+01
  0.9250245E+00  0.1098870E+02  0.3141388E+01
  0.9424778E+00  0.1098776E+02  0.3141395E+01
  0.9599311E+00  0.1101258E+02  0.3141392E+01
  0.9773844E+00  0.1103832E+02  0.3141390E+01
  0.9948377E+00  0.1096214E+02  0.3141390E+01
  0.1012291E+01  0.1104531E+02  0.3141385E+01
  0.1029744E+01  0.1095782E+02  0.3141389E+01
  0.1047198E+01  0.1110616E+02  0.3141386E+01
  0.1064651E+01  0.1096217E+02  0.3141391E+01
  0.1082104E+01  0.1109424E+02  0.3141392E+01
  0.1099558E+01  0.1109135E+02  0.3141391E+01
  0.1117011E+01  0.1110299E+02  0.3141396E+01
  0.1134464E+01  0.1099759E+02  0.3141391E+01
  0.1151917E+01  0.1113797E+02  0.3141392E+01
  0.1169371E+01  0.1102463E+02  0.3141394E+01
  0.1186824E+01  0.1110990E+02  0.3141394E+01
  0.1204277E+01  0.1104923E+02  0.3141389E+01
  0.1221731E+01  0.1114490E+02  0.3141396E+01
  0.1239184E+01  0.1111976E+02  0.3141385E+01
  0.1256637E+01  0.1111929E+02  0.3141396E+01
  0.1274090E+01  0.1114773E+02  0.3141398E+01
  0.1291544E+01  0.1117339E+02  0.3141390E+01
  0.1308997E+01  0.1110791E+02  0.3141395E+01
  0.1326450E+01  0.1118152E+02  0.3141392E+01
  0.1343904E+01  0.1111654E+02  0.3141397E+01
  0.1361357E+01  0.1124074E+02  0.3141392E+01
  0.1378810E+01  0.1110622E+02  0.3141389E+01
  0.1396263E+01  0.1123093E+02  0.3141397E+01
  0.1413717E+01  0.1122344E+02  0.3141389E+01
  0.1431170E+01  0.1124067E+02  0.3141394E+01
  0.1448623E+01  0.1114450E+02  0.3141391E+01
  0.1466077E+01  0.1127581E+02  0.3141395E+01
  0.1483530E+01  0.1119053E+02  0.3141392E+01
  0.1500983E+01  0.1125317E+02  0.3141390E+01
  0.1518437E+01  0.1120470E+02  0.3141393E+01
  0.1535890E+01  0.1129170E+02  0.3141398E+01
  0.1553343E+01  0.1126692E+02  0.3141390E+01
  0.1570796E+01  0.1126515E+02  0.3141393E+01
  0.1588250E+01  0.1129633E+02  0.3141396E+01
  0.1605703E+01  0.1132173E+02  0.3141393E+01
  0.1623156E+01  0.1126644E+02  0.3141395E+01
  0.1640610E+01  0.1132822E+02  0.3141392E+01
  0.1658063E+01  0.1128682E+02  0.3141392E+01
  0.1675516E+01  0.1138383E+02  0.3141391E+01
  0.1692969E+01  0.1125862E+02  0.3141389E+01
  0.1710423E+01  0.1137529E+02  0.3141393E+01
  0.1727876E+01  0.1136237E+02  0.3141402E+01
  0.1745329E+01  0.1138518E+02  0.3141396E+01
  0.1762783E+01  0.1129672E+02  0.3141398E+01
  0.1780236E+01  0.1141901E+02  0.3141394E+01
  0.1797689E+01  0.1136116E+02  0.3141401E+01
  0.1815143E+01  0.1140002E+02  0.3141397E+01
  0.1832596E+01  0.1136301E+02  0.3141397E+01
  0.1850049E+01  0.1143983E+02  0.3141394E+01
  0.1867502E+01  0.1141522E+02  0.3141397E+01
  0.1884956E+01  0.1141095E+02  0.3141398E+01
  0.1902409E+01  0.1144332E+02  0.3141396E+01
  0.1919862E+01  0.1146841E+02  0.3141399E+01
  0.1937316E+01  0.1142141E+02  0.3141396E+01
  0.1954769E+01  0.1147133E+02  0.3141402E+01
  0.1972222E+01  0.1145277E+02  0.3141399E+01
  0.1989675E+01  0.1152157E+02  0.3141402E+01
  0.2007129E+01  0.1140727E+02  0.3141402E+01
  0.2024582E+01  0.1151268E+02  0.3141396E+01
  0.2042035E+01  0.1149436E+02  0.3141396E+01
  0.2059489E+01  0.1152166E+02  0.3141402E+01
  0.2076942E+01  0.1144174E+02  0.3141399E+01
  0.2094395E+01  0.1155361E+02  0.3141398E+01
  0.2111848E+01  0.1151984E+02  0.3141397E+01
  0.2129302E+01  0.1153616E+02  0.3141403E+01
  0.2146755E+01  0.1150864E+02  0.3141400E+01
  0.2164208E+01  0.1157489E+02  0.3141401E+01
  0.2181662E+01  0.1155039E+02  0.3141399E+01
  0.2199115E+01  0.1154246E+02  0.3141396E+01
  0.2216568E+01  0.1157430E+02  0.3141399E+01
  0.2234021E+01  0.1159929E+02  0.3141398E+01
  0.2251475E+01  0.1155850E+02  0.3141402E+01
  0.2268928E+01  0.1159667E+02  0.3141399E+01
  0.2286381E+01  0.1159769E+02  0.3141397E+01
  0.2303835E+01  0.1164089E+02  0.3141402E+01
  0.2321288E+01  0.1153501E+02  0.3141404E+01
  0.2338741E+01  0.1163025E+02  0.3141400E+01
  0.2356194E+01  0.1160674E+02  0.3141404E+01
  0.2373648E+01  0.1163732E+02  0.3141402E+01
  0.2391101E+01  0.1156241E+02  0.3141405E+01
  0.2408554E+01  0.1166598E+02  0.3141402E+01
  0.2426008E+01  0.1165105E+02  0.3141402E+01
  0.2443461E+01  0.1164821E+02  0.3141404E+01
  0.2460914E+01  0.1162773E+02  0.3141407E+01
  0.2478368E+01  0.1168398E+02  0.3141402E+01
  0.2495821E+01  0.1165943E+02  0.3141401E+01
  0.2513274E+01  0.1164892E+02  0.3141406E+01
  0.2530727E+01  0.1167680E+02  0.3141398E+01
  0.2548181E+01  0.1170143E+02  0.3141401E+01
  0.2565634E+01  0.1166402E+02  0.3141407E+01
  0.2583087E+01  0.1169214E+02  0.3141403E+01
  0.2600541E+01  0.1170751E+02  0.3141407E+01
  0.2617994E+01  0.1172962E+02  0.3141406E+01
  0.2635447E+01  0.1162708E+02  0.3141405E+01
  0.2652900E+01  0.1171629E+02  0.3141399E+01
  0.2670354E+01  0.1168811E+02  0.3141403E+01
  0.2687807E+01  0.1172073E+02  0.3141404E+01
  0.2705260E+01  0.1164779E+02  0.3141407E+01
  0.2722714E+01  0.1174530E+02  0.3141404E+01
  0.2740167E+01  0.1174192E+02  0.3141403E+01
  0.2757620E+01  0.1172537E+02  0.3141404E+01
  0.2775074E+01  0.1170883E+02  0.3141396E+01
  0.2792527E+01  0.1175564E+02  0.3141409E+01
  0.2809980E+01  0.1173158E+02  0.3141400E+01
  0.2827433E+01  0.1171401E+02  0.3141407E+01
  0.2844887E+01  0.1174068E+02  0.3141401E+01
  0.2862340E+01  0.1176503E+02  0.3141398E+01
  0.2879793E+01  0.1172782E+02  0.3141403E+01
  0.2897247E+01  0.1174837E+02  0.3141398E+01
  0.2914700E+01  0.1177168E+02  0.3141399E+01
  0.2932153E+01  0.1177868E+02  0.3141408E+01
  0.2949607E+01  0.1168002E+02  0.3141409E+01
  0.2967060E+01  0.1176253E+02  0.3141402E+01
  0.2984513E+01  0.1173112E+02  0.3141405E+01
  0.3001966E+01  0.1176412E+02  0.3141401E+01
  0.3019420E+01  0.1168587E+02  0.3141408E+01
  0.3036873E+01  0.1178416E+02  0.3141400E+01
  0.3054326E+01  0.1178345E+02  0.3141405E+01
  0.3071780E+01  0.1175976E+02  0.3141402E+01
  0.3089233E+01  0.1174278E+02  0.3141401E+01
  0.3106686E+01  0.1178371E+02  0.3141406E+01
  0.3124139E+01  0.1175947E+02  0.3141402E+01
  0.3141593E+01  0.1173708E+02  0.3141402E+01
Zone t="Diffraction - beta =   0.000 at frequency  0.2000 rad/s",I=   181,F=POINT
  0.0000000E+00  0.1354287E+02  0.3140931E+01
  0.1745329E-01  0.1360172E+02  0.3140934E+01
  0.3490658E-01  0.1358917E+02  0.3140932E+01
  0.5235988E-01  0.1358934E+02  0.3140934E+01
  0.6981317E-01  0.1362540E+02  0.3140928E+01
  0.8726647E-01  0.1361278E+02  0.3140930E+01
  0.1047198E+00  0.1364163E+02  0.3140935E+01
  0.1221731E+00  0.1360047E+02  0.3140930E+01
  0.1396263E+00  0.1381129E+02  0.3140938E+01
  0.1570796E+00  0.1361196E+02  0.3140934E+01
  0.1745329E+00  0.1381674E+02  0.3140934E+01
  0.1919862E+00  0.1361141E+02  0.3140930E+01
  0.2094395E+00  0.1365806E+02  0.3140934E+01
  0.2268928E+00  0.1363782E+02  0.3140935E+01
  0.2443461E+00  0.1365315E+02  0.3140933E+01
  0.2617994E+00  0.1362537E+02  0.3140934E+01
  0.2792527E+00  0.1363182E+02  0.3140932E+01
  0.2967060E+00  0.1364825E+02  0.3140932E+01
  0.3141593E+00  0.1359768E+02  0.3140933E+01
  0.3316126E+00  0.1366098E+02  0.3140933E+01
  0.3490659E+00  0.1365379E+02  0.3140937E+01
  0.3665192E+00  0.1366051E+02  0.3140932E+01
  0.3839725E+00  0.1370395E+02  0.3140939E+01
  0.4014257E+00  0.1369526E+02  0.3140940E+01
  0.4188790E+00  0.1372472E+02  0.3140936E+01
  0.4363323E+00  0.1369525E+02  0.3140936E+01
  0.4537856E+00  0.1391142E+02  0.3140938E+01
  0.4712389E+00  0.1371756E+02  0.3140938E+01
  0.4886922E+00  0.1392747E+02  0.3140936E+01
  0.5061455E+00  0.1372706E+02  0.3140938E+01
  0.5235988E+00  0.1377742E+02  0.3140941E+01
  0.5410521E+00  0.1376606E+02  0.3140941E+01
  0.5585054E+00  0.1378446E+02  0.3140940E+01
  0.5759587E+00  0.1376529E+02  0.3140936E+01
  0.5934120E+00  0.1377583E+02  0.3140942E+01
  0.6108653E+00  0.1379554E+02  0.3140942E+01
  0.6283185E+00  0.1375745E+02  0.3140939E+01
  0.6457719E+00  0.1382054E+02  0.3140939E+01
  0.6632251E+00  0.1381777E+02  0.3140939E+01
  0.6806784E+00  0.1383232E+02  0.3140940E+01
  0.6981317E+00  0.1388114E+02  0.3140940E+01
  0.7155850E+00  0.1387601E+02  0.3140943E+01
  0.7330383E+00  0.1390481E+02  0.3140946E+01
  0.7504916E+00  0.1388633E+02  0.3140944E+01
  0.7679449E+00  0.1410805E+02  0.3140946E+01
  0.7853982E+00  0.1391830E+02  0.3140947E+01
  0.8028514E+00  0.1413258E+02  0.3140949E+01
  0.8203048E+00  0.1393609E+02  0.3140948E+01
  0.8377581E+00  0.1398417E+02  0.3140952E+01
  0.8552114E+00  0.1398678E+02  0.3140947E+01
  0.8726646E+00  0.1400649E+02  0.3140952E+01
  0.8901180E+00  0.1399557E+02  0.3140946E+01
  0.9075713E+00  0.1400848E+02  0.3140953E+01
  0.9250245E+00  0.1402956E+02  0.3140952E+01
  0.9424778E+00  0.1400612E+02  0.3140953E+01
  0.9599311E+00  0.1406363E+02  0.3140954E+01
  0.9773844E+00  0.1406597E+02  0.3140957E+01
  0.9948377E+00  0.1408761E+02  0.3140956E+01
  0.1012291E+01  0.1413936E+02  0.3140957E+01
  0.1029744E+01  0.1413751E+02  0.3140960E+01
  0.1047198E+01  0.1416081E+02  0.3140954E+01
  0.1064651E+01  0.1415534E+02  0.3140957E+01
  0.1082104E+01  0.1438102E+02  0.3140959E+01
  0.1099558E+01  0.1419459E+02  0.3140960E+01
  0.1117011E+01  0.1441114E+02  0.3140965E+01
  0.1134464E+01  0.1421830E+02  0.3140957E+01
  0.1151917E+01  0.1426056E+02  0.3140966E+01
  0.1169371E+01  0.1427702E+02  0.3140961E+01
  0.1186824E+01  0.1429739E+02  0.3140961E+01
  0.1204277E+01  0.1429329E+02  0.3140959E+01
  0.1221731E+01  0.1430689E+02  0.3140962E+01
  0.1239184E+01  0.1432746E+02  0.3140964E+01
  0.1256637E+01  0.1431949E+02  0.3140966E+01
  0.1274090E+01  0.1436758E+02  0.3140966E+01
  0.1291544E+01  0.1437462E+02  0.3140970E+01
  0.1308997E+01  0.1440162E+02  0.3140971E+01
  0.1326450E+01  0.1445361E+02  0.3140967E+01
  0.1343904E+01  0.1445370E+02  0.3140971E+01
  0.1361357E+01  0.1446786E+02  0.3140970E+01
  0.1378810E+01  0.1447548E+02  0.3140972E+01
  0.1396263E+01  0.1470299E+02  0.3140974E+01
  0.1413717E+01  0.1451940E+02  0.3140974E+01
  0.1431170E+01  0.1473788E+02  0.3140974E+01
  0.1448623E+01  0.1454500E+02  0.3140975E+01
  0.1466077E+01  0.1457845E+02  0.3140979E+01
  0.1483530E+01  0.1460891E+02  0.3140975E+01
  0.1500983E+01  0.1462869E+02  0.3140981E+01