VARIABLES="w (rad/s)"
"abs(F   1   1)" "angle(F   1   1)"
"abs(F   1   2)" "angle(F   1   2)"
"abs(F   1   3)" "angle(F   1   3)"
"abs(F   1   4)" "angle(F   1   4)"
"abs(F   1   5)" "angle(F   1   5)"
"abs(F   1   6)" "angle(F   1   6)"
Zone t="Diffraction force - beta =   0.000 deg",I=    41,F=POINT
  0.1000000E+00  0.5813751E+04 -0.3141592E+01  0.4906977E-03 -0.1628161E+01  0.2729845E+04  0.1581680E+01  0.6176335E-03  0.1894500E+01  0.1781226E+05 -0.3141592E+01  0.4101423E-04 -0.1744009E-01
  0.1475000E+00  0.1270134E+05 -0.3141584E+01  0.4440061E-03  0.4309826E+00  0.5931909E+04  0.1593751E+01  0.4575254E-02 -0.1673949E+01  0.3910791E+05 -0.3141584E+01  0.1148376E-04 -0.3058451E+01
  0.1950000E+00  0.2212654E+05 -0.3141548E+01  0.1574025E-03 -0.1546559E+01  0.1029211E+05  0.1609454E+01  0.9452426E-02  0.1779747E+01  0.6829990E+05 -0.3141547E+01  0.3624577E-03  0.3123174E+01
  0.2425000E+00  0.3404837E+05 -0.3141430E+01  0.9923275E-03 -0.1578485E+01  0.1566973E+05  0.1628201E+01  0.2571031E-01 -0.1077418E+01  0.1054956E+06 -0.3141429E+01  0.8650620E-04 -0.2449787E+00
  0.2900000E+00  0.4844691E+05 -0.3141130E+01  0.1492586E-02  0.1207613E+01  0.2199193E+05  0.1648956E+01  0.9811404E-02  0.1570019E+01  0.1508318E+06 -0.3141127E+01  0.9984018E-04  0.3026716E+01
  0.3375000E+00  0.6521017E+05 -0.3140480E+01  0.8964863E-03  0.1562286E+01  0.2900899E+05  0.1671236E+01  0.7197831E-02 -0.1625942E+01  0.2039107E+06 -0.3140471E+01  0.9155989E-03  0.3129093E+01
  0.3850000E+00  0.8431759E+05 -0.3139229E+01  0.3213490E-02  0.2076396E+01  0.3645236E+05  0.1694587E+01  0.2439615E-01 -0.8699719E+00  0.2653118E+06 -0.3139211E+01  0.2919427E-03  0.1178721E+00
  0.4325000E+00  0.1056937E+06 -0.3137033E+01  0.1445209E-01  0.1538060E+01  0.4410862E+05  0.1718364E+01  0.2099415E-01 -0.8136683E+00  0.3346828E+06 -0.3136999E+01  0.2884073E-03 -0.6540827E+00
  0.4800000E+00  0.1293343E+06 -0.3133452E+01  0.1387924E-01 -0.1622491E+01  0.5180895E+05  0.1741848E+01  0.5027002E-01 -0.6154507E+00  0.4128153E+06 -0.3133394E+01  0.1317921E-02  0.3048836E+01
  0.5275000E+00  0.1551136E+06 -0.3127952E+01  0.9218632E-02  0.2924719E+01  0.5940677E+05  0.1764424E+01  0.8507677E-01 -0.2888523E+01  0.4987279E+06 -0.3127849E+01  0.1620955E-02 -0.3075651E+01
  0.5750000E+00  0.1831238E+06 -0.3119923E+01  0.9310888E-02 -0.8491048E-01  0.6622555E+05  0.1787526E+01  0.4037087E-01  0.2029711E+01  0.5947529E+06 -0.3119774E+01  0.8615813E-03 -0.2845047E+01
  0.6225000E+00  0.2130021E+06 -0.3108670E+01  0.1075654E-01 -0.2015094E+01  0.7269054E+05  0.1808746E+01  0.4009154E-01 -0.3675017E+00  0.6980249E+06 -0.3108431E+01  0.6492162E-03  0.3477670E+00
  0.6700000E+00  0.2448068E+06 -0.3093520E+01  0.1224763E-01  0.2153961E+01  0.7815795E+05  0.1829887E+01  0.5699795E-01 -0.2665493E+01  0.8105613E+06 -0.3093167E+01  0.1499482E-02 -0.2926235E+01
  0.7175000E+00  0.2784138E+06 -0.3073776E+01  0.1144328E-01  0.1317409E+01  0.8294597E+05  0.1849203E+01  0.1070119E-01  0.4483427E+00  0.9335296E+06 -0.3073329E+01  0.2760112E-02  0.3147577E+00
  0.7650000E+00  0.3128910E+06 -0.3048671E+01  0.3708158E-01 -0.2989162E+01  0.8645819E+05  0.1868605E+01  0.9577551E-01 -0.1297300E+00  0.1061498E+07 -0.3048055E+01  0.9160358E-03 -0.3332100E-01
  0.8125000E+00  0.3478780E+06 -0.3017704E+01  0.4188598E-01 -0.3023744E+01  0.8940032E+05  0.1885769E+01  0.1309693E+00 -0.1758778E+01  0.1194287E+07 -0.3016834E+01  0.4774807E-02 -0.7677189E-01
  0.8600000E+00  0.3828588E+06 -0.2980635E+01  0.2453561E-01  0.9059623E+00  0.9065592E+05  0.1903540E+01  0.6471113E-01  0.4812146E-01  0.1333216E+07 -0.2979570E+01  0.5129223E-02 -0.3111840E+01
  0.9075000E+00  0.4165118E+06 -0.2937033E+01  0.5532641E-01 -0.1379891E+01  0.9124115E+05  0.1919848E+01  0.8809012E-01  0.2817213E+01  0.1472166E+07 -0.2935780E+01  0.7334146E-03  0.5203632E-01
  0.9550000E+00  0.4474254E+06 -0.2886826E+01  0.2502186E-01 -0.3974649E+00  0.9084330E+05  0.1934923E+01  0.8026216E-01  0.9950268E+00  0.1605167E+07 -0.2885306E+01  0.3493730E-02 -0.2122451E+01
  0.1002500E+01  0.4737722E+06 -0.2830192E+01  0.2642184E-01  0.1021525E+01  0.8916534E+05  0.1949970E+01  0.1352835E+00  0.2253288E+01  0.1723820E+07 -0.2828174E+01  0.2858245E-02  0.3493981E+00
  0.1050000E+01  0.4947522E+06 -0.2768704E+01  0.1689473E-01  0.1381814E+01  0.8692426E+05  0.1964108E+01  0.2508390E+00 -0.2969444E+01  0.1828958E+07 -0.2766270E+01  0.1611826E-02 -0.1760432E+00
  0.1097500E+01  0.5089934E+06 -0.2703074E+01  0.8056673E-02  0.3138752E+01  0.8392545E+05  0.1976976E+01  0.3326522E+00  0.3323107E+00  0.1913301E+07 -0.2700245E+01  0.2700342E-02 -0.3036864E+01
  0.1145000E+01  0.5146894E+06 -0.2634049E+01  0.6482509E-01  0.1235375E+00  0.7993886E+05  0.1989110E+01  0.1687020E+00  0.2034621E+00  0.1967215E+07 -0.2630699E+01  0.6947040E-02  0.2025603E+01
  0.1192500E+01  0.5119842E+06 -0.2563974E+01  0.3856662E-01 -0.2246340E+00  0.7559466E+05  0.2000785E+01  0.1188337E+00  0.3159278E-01  0.1990782E+07 -0.2560096E+01  0.2020623E-02  0.2704966E+01
  0.1240000E+01  0.5009325E+06 -0.2494448E+01  0.5579218E-01 -0.2629859E+01  0.7107991E+05  0.2011866E+01  0.1712220E+00  0.2705288E+01  0.1983144E+07 -0.2490094E+01  0.8301679E-02 -0.3126888E+01
  0.1287500E+01  0.4815397E+06 -0.2426034E+01  0.1048462E+00 -0.3319907E+00  0.6591220E+05  0.2020713E+01  0.9071298E-01 -0.7612506E+00  0.1940948E+07 -0.2421046E+01  0.1078528E-02 -0.4383366E+00
  0.1335000E+01  0.4556281E+06 -0.2360788E+01  0.4159989E-01  0.5214209E+00  0.6056291E+05  0.2028945E+01  0.2582048E+00  0.2933314E+01  0.1869585E+07 -0.2355095E+01  0.5586301E-02  0.5910329E+00
  0.1382500E+01  0.4238358E+06 -0.2299175E+01  0.5555222E-01 -0.5477682E+00  0.5527643E+05  0.2036700E+01  0.4425082E+00  0.9767173E-01  0.1771164E+07 -0.2292818E+01  0.4248086E-02 -0.9229849E+00
  0.1430000E+01  0.3877883E+06 -0.2241852E+01  0.5892071E-01  0.2719537E-01  0.5015277E+05  0.2044047E+01  0.3264731E+00 -0.2903824E+00  0.1650902E+07 -0.2234768E+01  0.3376298E-02  0.1352127E+01
  0.1477500E+01  0.3487760E+06 -0.2188995E+01  0.2485609E-01  0.2490786E+01  0.4497444E+05  0.2048698E+01  0.1866319E+00 -0.3014525E+01  0.1512378E+07 -0.2180983E+01  0.3448486E-02  0.1570796E+01
  0.1525000E+01  0.3079357E+06 -0.2140292E+01  0.4431408E-01  0.1393892E+00  0.3997527E+05  0.2052500E+01  0.3729284E+00  0.6444660E-01  0.1359454E+07 -0.2131194E+01  0.3286844E-03 -0.1190290E+01
  0.1572500E+01  0.2662674E+06 -0.2096007E+01  0.1752746E-01  0.3439410E-01  0.3528199E+05  0.2055553E+01  0.3191974E+00 -0.9393548E-02  0.1197033E+07 -0.2085708E+01  0.2876798E-02  0.1443152E+01
  0.1620000E+01  0.2246710E+06 -0.2055709E+01  0.2227576E-01  0.2639950E+01  0.3093151E+05  0.2058192E+01  0.4385700E+00 -0.8148636E-01  0.1028104E+07 -0.2044030E+01  0.3176175E-02  0.1532354E+01
  0.1667500E+01  0.1837312E+06 -0.2019186E+01  0.4810973E-02 -0.2828869E+01  0.2694003E+05  0.2059984E+01  0.1048774E+00 -0.2776811E+01  0.8557207E+06 -0.2005542E+01  0.3437531E-02 -0.1677532E+01
  0.1715000E+01  0.1438318E+06 -0.1985161E+01  0.5803477E-02  0.1612877E+01  0.2325873E+05  0.2060323E+01  0.2390226E+00 -0.1496523E+00  0.6815421E+06 -0.1968777E+01  0.6823938E-03  0.2677945E+01
  0.1762500E+01  0.1055784E+06 -0.1952758E+01  0.7919767E-02  0.2900352E+01  0.1989833E+05  0.2060090E+01  0.1239703E+00 -0.8793390E-01  0.5082058E+06 -0.1932250E+01  0.1220703E-02  0.1570796E+01
  0.1810000E+01  0.6909351E+05 -0.1920090E+01  0.2835817E-01  0.3089915E+01  0.1699536E+05  0.2061661E+01  0.3555962E-02  0.7133678E+00  0.3376224E+06 -0.1891894E+01  0.2355198E-02 -0.2115660E+01
  0.1857500E+01  0.3466345E+05 -0.1877453E+01  0.1964472E-01 -0.3068514E+01  0.1443911E+05  0.2064548E+01  0.2486710E+00  0.3046462E+01  0.1713590E+06 -0.1828214E+01  0.1469921E-02  0.8441540E+00
  0.1905000E+01  0.2751469E+04 -0.1382090E+01  0.5913170E-02  0.1373401E+01  0.1222030E+05  0.2069207E+01  0.9195925E-01  0.1066878E+00  0.1700078E+05 -0.9323555E+00  0.1529537E-02 -0.4993467E+00
  0.1952500E+01  0.2756511E+05  0.1215908E+01  0.4195106E-01 -0.3059297E+01  0.1024384E+05  0.2075968E+01  0.9975509E-01 -0.3049340E+01  0.1450054E+06  0.1177114E+01  0.1256791E-02  0.2077895E+01
  0.2000000E+01  0.5500237E+05  0.1257856E+01  0.4208329E-02 -0.1230699E+01  0.8647220E+04  0.2094242E+01  0.1327646E-01 -0.8096796E+00  0.2907255E+06  0.1243628E+01  0.5459150E-03  0.1107149E+01
