VARIABLES="Theta (rad)" "ABS(HKochin)" "ANGLE(HKochin)"
Zone t="Diffraction - beta =   0.000 at frequency  0.0500 rad/s",I=   181,F=POINT
  0.0000000E+00  0.3620540E+01 -0.3141540E+01
  0.1745329E-01  0.3634851E+01  0.3141582E+01
  0.3490658E-01  0.4268159E+01  0.3141578E+01
  0.5235988E-01  0.4111174E+01 -0.3141558E+01
  0.6981317E-01  0.3973846E+01  0.3141567E+01
  0.8726647E-01  0.3128441E+01  0.3141569E+01
  0.1047198E+00  0.3920186E+01  0.3141586E+01
  0.1221731E+00  0.3827314E+01  0.3141576E+01
  0.1396263E+00  0.3243092E+01  0.3141583E+01
  0.1570796E+00  0.3250908E+01  0.3141581E+01
  0.1745329E+00  0.3239559E+01  0.3141580E+01
  0.1919862E+00  0.3823454E+01 -0.3141590E+01
  0.2094395E+00  0.3931433E+01 -0.3141588E+01
  0.2268928E+00  0.3203748E+01  0.3141580E+01
  0.2443461E+00  0.3972883E+01 -0.3141564E+01
  0.2617994E+00  0.4119090E+01 -0.3141591E+01
  0.2792527E+00  0.4268857E+01 -0.3141572E+01
  0.2967060E+00  0.3623082E+01  0.3141580E+01
  0.3141593E+00  0.3618886E+01  0.3141587E+01
  0.3316126E+00  0.3645878E+01  0.3141577E+01
  0.3490659E+00  0.4271020E+01  0.3141582E+01
  0.3665192E+00  0.4101001E+01 -0.3141567E+01
  0.3839725E+00  0.3971716E+01  0.3141587E+01
  0.4014257E+00  0.3095006E+01 -0.3141582E+01
  0.4188790E+00  0.3899971E+01  0.3141577E+01
  0.4363323E+00  0.3834384E+01  0.3141539E+01
  0.4537856E+00  0.3244004E+01  0.3141590E+01
  0.4712389E+00  0.3247297E+01  0.3141542E+01
  0.4886922E+00  0.3233730E+01  0.3141575E+01
  0.5061455E+00  0.3823661E+01  0.3141574E+01
  0.5235988E+00  0.3932682E+01  0.3141531E+01
  0.5410521E+00  0.3314091E+01  0.3141579E+01
  0.5585054E+00  0.3968899E+01 -0.3141576E+01
  0.5759587E+00  0.4123921E+01 -0.3141566E+01
  0.5934120E+00  0.4272543E+01 -0.3141578E+01
  0.6108653E+00  0.3612053E+01  0.3141571E+01
  0.6283185E+00  0.3614358E+01  0.3141539E+01
  0.6457719E+00  0.3655267E+01 -0.3141579E+01
  0.6632251E+00  0.4276903E+01 -0.3141575E+01
  0.6806784E+00  0.4089793E+01 -0.3141540E+01
  0.6981317E+00  0.3966739E+01  0.3141539E+01
  0.7155850E+00  0.3107026E+01 -0.3141556E+01
  0.7330383E+00  0.3872277E+01 -0.3141592E+01
  0.7504916E+00  0.3844100E+01 -0.3141592E+01
  0.7679449E+00  0.3242218E+01  0.3141545E+01
  0.7853982E+00  0.3240292E+01 -0.3141582E+01
  0.8028514E+00  0.3226219E+01  0.3141570E+01
  0.8203048E+00  0.3826897E+01 -0.3141586E+01
  0.8377581E+00  0.3923527E+01  0.3141567E+01
  0.8552114E+00  0.3448069E+01 -0.3141553E+01
  0.8726646E+00  0.3962135E+01  0.3141500E+01
  0.8901180E+00  0.4125414E+01 -0.3141586E+01
  0.9075713E+00  0.4279568E+01  0.3141557E+01
  0.9250245E+00  0.3602582E+01 -0.3141557E+01
  0.9424778E+00  0.3607177E+01 -0.3141517E+01
  0.9599311E+00  0.3662144E+01  0.3141567E+01
  0.9773844E+00  0.4285293E+01  0.3141583E+01
  0.9948377E+00  0.4078228E+01 -0.3141582E+01
  0.1012291E+01  0.3959333E+01  0.3141568E+01
  0.1029744E+01  0.3163275E+01  0.3141579E+01
  0.1047198E+01  0.3840294E+01 -0.3141543E+01
  0.1064651E+01  0.3855224E+01  0.3141568E+01
  0.1082104E+01  0.3238037E+01  0.3141592E+01
  0.1099558E+01  0.3230815E+01 -0.3141584E+01
  0.1117011E+01  0.3217745E+01 -0.3141585E+01
  0.1134464E+01  0.3833681E+01 -0.3141584E+01
  0.1151917E+01  0.3904733E+01  0.3141534E+01
  0.1169371E+01  0.3593286E+01  0.3141554E+01
  0.1186824E+01  0.3953548E+01 -0.3141578E+01
  0.1204277E+01  0.4123290E+01  0.3141554E+01
  0.1221731E+01  0.4288384E+01  0.3141584E+01
  0.1239184E+01  0.3595727E+01  0.3141559E+01
  0.1256637E+01  0.3598200E+01  0.3141587E+01
  0.1274090E+01  0.3665955E+01  0.3141547E+01
  0.1291544E+01  0.4295308E+01  0.3141551E+01
  0.1308997E+01  0.4067870E+01  0.3141575E+01
  0.1326450E+01  0.3950243E+01  0.3141588E+01
  0.1343904E+01  0.3258290E+01 -0.3141592E+01
  0.1361357E+01  0.3806824E+01  0.3141557E+01
  0.1378810E+01  0.3866687E+01  0.3141588E+01
  0.1396263E+01  0.3231620E+01  0.3141584E+01
  0.1413717E+01  0.3219674E+01  0.3141553E+01
  0.1431170E+01  0.3209361E+01 -0.3141591E+01
  0.1448623E+01  0.3842910E+01  0.3141589E+01
  0.1466077E+01  0.3878455E+01  0.3141551E+01
  0.1483530E+01  0.3735005E+01 -0.3141576E+01
  0.1500983E+01  0.3943690E+01  0.3141558E+01
  0.1518437E+01  0.4117447E+01 -0.3141552E+01
  0.1535890E+01  0.4298624E+01  0.3141579E+01
  0.1553343E+01  0.3592152E+01  0.3141529E+01
  0.1570796E+01  0.3588288E+01 -0.3141577E+01
  0.1588250E+01  0.3665643E+01 -0.3141589E+01
  0.1605703E+01  0.4306065E+01  0.3141574E+01
  0.1623156E+01  0.4059409E+01  0.3141587E+01
  0.1640610E+01  0.3940291E+01  0.3141544E+01
  0.1658063E+01  0.3382590E+01  0.3141534E+01
  0.1675516E+01  0.3775564E+01  0.3141566E+01
  0.1692969E+01  0.3877576E+01 -0.3141580E+01
  0.1710423E+01  0.3224141E+01 -0.3141573E+01
  0.1727876E+01  0.3208002E+01  0.3141548E+01
  0.1745329E+01  0.3201705E+01 -0.3141531E+01
  0.1762783E+01  0.3853965E+01 -0.3141576E+01
  0.1780236E+01  0.3847272E+01 -0.3141570E+01
  0.1797689E+01  0.3859662E+01 -0.3141585E+01
  0.1815143E+01  0.3933698E+01  0.3141495E+01
  0.1832596E+01  0.4108768E+01  0.3141565E+01
  0.1850049E+01  0.4309301E+01 -0.3141561E+01
  0.1867502E+01  0.3591838E+01  0.3141562E+01
  0.1884956E+01  0.3578236E+01  0.3141573E+01
  0.1902409E+01  0.3662739E+01  0.3141582E+01
  0.1919862E+01  0.4316283E+01  0.3141536E+01
  0.1937316E+01  0.4053537E+01 -0.3141557E+01
  0.1954769E+01  0.3930793E+01  0.3141586E+01
  0.1972222E+01  0.3524307E+01  0.3141577E+01
  0.1989675E+01  0.3749151E+01 -0.3141579E+01
  0.2007129E+01  0.3886830E+01 -0.3141552E+01
  0.2024582E+01  0.3215714E+01 -0.3141587E+01
  0.2042035E+01  0.3197227E+01  0.3141537E+01
  0.2059489E+01  0.3195598E+01  0.3141592E+01
  0.2076942E+01  0.3865482E+01  0.3141529E+01
  0.2094395E+01  0.3814006E+01  0.3141515E+01
  0.2111848E+01  0.3954808E+01  0.3141544E+01
  0.2129302E+01  0.3924618E+01  0.3141566E+01
  0.2146755E+01  0.4098260E+01 -0.3141584E+01
  0.2164208E+01  0.4319159E+01  0.3141584E+01
  0.2181662E+01  0.3595908E+01  0.3141572E+01
  0.2199115E+01  0.3569448E+01  0.3141554E+01
  0.2216568E+01  0.3656108E+01  0.3141576E+01
  0.2234021E+01  0.4325080E+01 -0.3141582E+01
  0.2251475E+01  0.4051411E+01  0.3141564E+01
  0.2268928E+01  0.3922176E+01  0.3141562E+01
  0.2286381E+01  0.3669329E+01  0.3141591E+01
  0.2303835E+01  0.3730408E+01  0.3141580E+01
  0.2321288E+01  0.3893727E+01  0.3141559E+01
  0.2338741E+01  0.3207657E+01  0.3141586E+01
  0.2356194E+01  0.3187965E+01  0.3141585E+01
  0.2373648E+01  0.3191631E+01 -0.3141524E+01
  0.2391101E+01  0.3876754E+01  0.3141564E+01
  0.2408554E+01  0.3782086E+01  0.3141576E+01
  0.2426008E+01  0.4011272E+01 -0.3141559E+01
  0.2443461E+01  0.3917255E+01 -0.3141577E+01
  0.2460914E+01  0.4086696E+01  0.3141580E+01
  0.2478368E+01  0.4327234E+01  0.3141565E+01
  0.2495821E+01  0.3602931E+01  0.3141557E+01
  0.2513274E+01  0.3562500E+01 -0.3141548E+01
  0.2530727E+01  0.3646997E+01  0.3141544E+01
  0.2548181E+01  0.4331751E+01  0.3141565E+01
  0.2565634E+01  0.4052582E+01 -0.3141538E+01
  0.2583087E+01  0.3915564E+01  0.3141562E+01
  0.2600541E+01  0.3803704E+01 -0.3141579E+01
  0.2617994E+01  0.3721401E+01  0.3141544E+01
  0.2635447E+01  0.3896894E+01  0.3141568E+01
  0.2652900E+01  0.3200262E+01  0.3141554E+01
  0.2670354E+01  0.3181120E+01 -0.3141526E+01
  0.2687807E+01  0.3189966E+01 -0.3141576E+01
  0.2705260E+01  0.3886274E+01  0.3141569E+01
  0.2722714E+01  0.3754508E+01 -0.3141565E+01
  0.2740167E+01  0.4023384E+01  0.3141582E+01
  0.2757620E+01  0.3912320E+01 -0.3141579E+01
  0.2775074E+01  0.4075191E+01  0.3141565E+01
  0.2792527E+01  0.4333003E+01  0.3141550E+01
  0.2809980E+01  0.3612587E+01  0.3141576E+01
  0.2827433E+01  0.3557999E+01 -0.3141548E+01
  0.2844887E+01  0.3635529E+01 -0.3141535E+01
  0.2862340E+01  0.4335340E+01  0.3141587E+01
  0.2879793E+01  0.4057319E+01  0.3141512E+01
  0.2897247E+01  0.3911486E+01  0.3141589E+01
  0.2914700E+01  0.3914279E+01 -0.3141562E+01
  0.2932153E+01  0.3722431E+01  0.3141544E+01
  0.2949607E+01  0.3896773E+01 -0.3141577E+01
  0.2967060E+01  0.3194677E+01  0.3141579E+01
  0.2984513E+01  0.3177775E+01 -0.3141584E+01
  0.3001966E+01  0.3191102E+01 -0.3141557E+01
  0.3019420E+01  0.3893007E+01 -0.3141569E+01
  0.3036873E+01  0.3733829E+01 -0.3141579E+01
  0.3054326E+01  0.3990246E+01  0.3141514E+01
  0.3071780E+01  0.3910413E+01  0.3141558E+01
  0.3089233E+01  0.4065217E+01  0.3141592E+01
  0.3106686E+01  0.4335743E+01 -0.3141568E+01
  0.3124139E+01  0.3623821E+01  0.3141566E+01
  0.3141593E+01  0.3556563E+01 -0.3141588E+01
Zone t="Diffraction - beta =   0.000 at frequency  0.1000 rad/s",I=   181,F=POINT
  0.0000000E+00  0.7780166E+01  0.3141569E+01
  0.1745329E-01  0.6971368E+01  0.3141534E+01
  0.3490658E-01  0.7372418E+01  0.3141557E+01
  0.5235988E-01  0.7613117E+01  0.3141553E+01
  0.6981317E-01  0.7276837E+01  0.3141547E+01
  0.8726647E-01  0.7465812E+01  0.3141560E+01
  0.1047198E+00  0.7332430E+01  0.3141557E+01
  0.1221731E+00  0.7466865E+01  0.3141551E+01
  0.1396263E+00  0.7472784E+01  0.3141556E+01
  0.1570796E+00  0.7361713E+01  0.3141560E+01
  0.1745329E+00  0.7485129E+01  0.3141573E+01
  0.1919862E+00  0.7480437E+01  0.3141557E+01
  0.2094395E+00  0.7343732E+01  0.3141550E+01
  0.2268928E+00  0.7467615E+01  0.3141560E+01
  0.2443461E+00  0.7287889E+01  0.3141537E+01
  0.2617994E+00  0.7617733E+01  0.3141558E+01
  0.2792527E+00  0.7386851E+01  0.3141557E+01
  0.2967060E+00  0.6986380E+01  0.3141551E+01
  0.3141593E+00  0.7781352E+01  0.3141531E+01
  0.3316126E+00  0.6998645E+01  0.3141550E+01
  0.3490659E+00  0.7380355E+01  0.3141545E+01
  0.3665192E+00  0.7616116E+01  0.3141558E+01
  0.3839725E+00  0.7281163E+01  0.3141556E+01
  0.4014257E+00  0.7472107E+01  0.3141558E+01
  0.4188790E+00  0.7346319E+01  0.3141536E+01
  0.4363323E+00  0.7471063E+01  0.3141559E+01
  0.4537856E+00  0.7476138E+01  0.3141551E+01
  0.4712389E+00  0.7386638E+01  0.3141552E+01
  0.4886922E+00  0.7512205E+01  0.3141563E+01
  0.5061455E+00  0.7510550E+01  0.3141548E+01
  0.5235988E+00  0.7378954E+01  0.3141557E+01
  0.5410521E+00  0.7477472E+01  0.3141560E+01
  0.5585054E+00  0.7313492E+01  0.3141549E+01
  0.5759587E+00  0.7629597E+01  0.3141555E+01
  0.5934120E+00  0.7422171E+01  0.3141546E+01
  0.6108653E+00  0.7043428E+01  0.3141549E+01
  0.6283185E+00  0.7784674E+01  0.3141550E+01
  0.6457719E+00  0.7066294E+01  0.3141545E+01
  0.6632251E+00  0.7409667E+01  0.3141557E+01
  0.6806784E+00  0.7626568E+01  0.3141577E+01
  0.6981317E+00  0.7300673E+01  0.3141557E+01
  0.7155850E+00  0.7485931E+01  0.3141548E+01
  0.7330383E+00  0.7383498E+01  0.3141551E+01
  0.7504916E+00  0.7492725E+01  0.3141549E+01
  0.7679449E+00  0.7494946E+01  0.3141535E+01
  0.7853982E+00  0.7434035E+01  0.3141556E+01
  0.8028514E+00  0.7551158E+01  0.3141559E+01
  0.8203048E+00  0.7553954E+01  0.3141551E+01
  0.8377581E+00  0.7434678E+01  0.3141550E+01
  0.8552114E+00  0.7494218E+01  0.3141557E+01
  0.8726646E+00  0.7350999E+01  0.3141560E+01
  0.8901180E+00  0.7647640E+01  0.3141548E+01
  0.9075713E+00  0.7474966E+01  0.3141554E+01
  0.9250245E+00  0.7135833E+01  0.3141551E+01
  0.9424778E+00  0.7789833E+01  0.3141561E+01
  0.9599311E+00  0.7167598E+01  0.3141539E+01
  0.9773844E+00  0.7457803E+01  0.3141551E+01
  0.9948377E+00  0.7643355E+01  0.3141551E+01
  0.1012291E+01  0.7333423E+01  0.3141553E+01
  0.1029744E+01  0.7505818E+01  0.3141569E+01
  0.1047198E+01  0.7440820E+01  0.3141550E+01
  0.1064651E+01  0.7529447E+01  0.3141559E+01
  0.1082104E+01  0.7527381E+01  0.3141548E+01
  0.1099558E+01  0.7499500E+01  0.3141546E+01
  0.1117011E+01  0.7598136E+01  0.3141541E+01
  0.1134464E+01  0.7606662E+01  0.3141543E+01
  0.1151917E+01  0.7505249E+01  0.3141536E+01
  0.1169371E+01  0.7516231E+01  0.3141572E+01
  0.1186824E+01  0.7396806E+01  0.3141552E+01
  0.1204277E+01  0.7669855E+01  0.3141557E+01
  0.1221731E+01  0.7539891E+01  0.3141548E+01
  0.1239184E+01  0.7255127E+01  0.3141543E+01
  0.1256637E+01  0.7796351E+01  0.3141574E+01
  0.1274090E+01  0.7292412E+01  0.3141550E+01
  0.1291544E+01  0.7519785E+01  0.3141550E+01
  0.1308997E+01  0.7664893E+01  0.3141557E+01
  0.1326450E+01  0.7376347E+01  0.3141551E+01
  0.1343904E+01  0.7529945E+01  0.3141553E+01
  0.1361357E+01  0.7512728E+01  0.3141558E+01
  0.1378810E+01  0.7577646E+01  0.3141559E+01
  0.1396263E+01  0.7570208E+01  0.3141558E+01
  0.1413717E+01  0.7576321E+01  0.3141557E+01
  0.1431170E+01  0.7648668E+01  0.3141560E+01
  0.1448623E+01  0.7663546E+01  0.3141551E+01
  0.1466077E+01  0.7584171E+01  0.3141562E+01
  0.1483530E+01  0.7541719E+01  0.3141567E+01
  0.1500983E+01  0.7446616E+01  0.3141570E+01
  0.1518437E+01  0.7694092E+01  0.3141559E+01
  0.1535890E+01  0.7610806E+01  0.3141547E+01
  0.1553343E+01  0.7389703E+01  0.3141557E+01
  0.1570796E+01  0.7803431E+01  0.3141553E+01
  0.1588250E+01  0.7428910E+01  0.3141541E+01
  0.1605703E+01  0.7589707E+01  0.3141561E+01
  0.1623156E+01  0.7688998E+01  0.3141553E+01
  0.1640610E+01  0.7425131E+01  0.3141538E+01
  0.1658063E+01  0.7556080E+01  0.3141554E+01
  0.1675516E+01  0.7591868E+01  0.3141554E+01
  0.1692969E+01  0.7632768E+01  0.3141562E+01
  0.1710423E+01  0.7619231E+01  0.3141537E+01
  0.1727876E+01  0.7657100E+01  0.3141552E+01
  0.1745329E+01  0.7697849E+01  0.3141555E+01
  0.1762783E+01  0.7718912E+01  0.3141564E+01
  0.1780236E+01  0.7663378E+01  0.3141551E+01
  0.1797689E+01  0.7567781E+01  0.3141555E+01
  0.1815143E+01  0.7495020E+01  0.3141562E+01
  0.1832596E+01  0.7718095E+01  0.3141549E+01
  0.1850049E+01  0.7680760E+01  0.3141566E+01
  0.1867502E+01  0.7526343E+01  0.3141550E+01
  0.1884956E+01  0.7810469E+01  0.3141553E+01
  0.1902409E+01  0.7563723E+01  0.3141567E+01
  0.1919862E+01  0.7660711E+01  0.3141562E+01
  0.1937316E+01  0.7713166E+01  0.3141560E+01
  0.1954769E+01  0.7474815E+01  0.3141558E+01
  0.1972222E+01  0.7581475E+01  0.3141561E+01
  0.1989675E+01  0.7670700E+01  0.3141547E+01
  0.2007129E+01  0.7689457E+01  0.3141564E+01
  0.2024582E+01  0.7669651E+01  0.3141557E+01
  0.2042035E+01  0.7733874E+01  0.3141555E+01
  0.2059489E+01  0.7740684E+01  0.3141542E+01
  0.2076942E+01  0.7767263E+01  0.3141553E+01
  0.2094395E+01  0.7735207E+01  0.3141562E+01
  0.2111848E+01  0.7592083E+01  0.3141546E+01
  0.2129302E+01  0.7537950E+01  0.3141555E+01
  0.2146755E+01  0.7739495E+01  0.3141556E+01
  0.2164208E+01  0.7742961E+01  0.3141546E+01
  0.2181662E+01  0.7651435E+01  0.3141567E+01
  0.2199115E+01  0.7816789E+01  0.3141553E+01
  0.2216568E+01  0.7683368E+01  0.3141552E+01
  0.2234021E+01  0.7725752E+01  0.3141548E+01
  0.2251475E+01  0.7735415E+01  0.3141558E+01
  0.2268928E+01  0.7520924E+01  0.3141558E+01
  0.2286381E+01  0.7603661E+01  0.3141565E+01
  0.2303835E+01  0.7741435E+01  0.3141550E+01
  0.2321288E+01  0.7742167E+01  0.3141564E+01
  0.2338741E+01  0.7716785E+01  0.3141552E+01
  0.2356194E+01  0.7799203E+01  0.3141552E+01
  0.2373648E+01  0.7773146E+01  0.3141546E+01
  0.2391101E+01  0.7804035E+01  0.3141558E+01
  0.2408554E+01  0.7792709E+01  0.3141550E+01
  0.2426008E+01  0.7612099E+01  0.3141561E+01
  0.2443461E+01  0.7571008E+01  0.3141565E+01
  0.2460914E+01  0.7756243E+01  0.3141561E+01
  0.2478368E+01  0.7790933E+01  0.3141554E+01
  0.2495821E+01  0.7753110E+01  0.3141547E+01
  0.2513274E+01  0.7821794E+01  0.3141556E+01
  0.2530727E+01  0.7776299E+01  0.3141567E+01
  0.2548181E+01  0.7778805E+01  0.3141541E+01
  0.2565634E+01  0.7753153E+01  0.3141549E+01
  0.2583087E+01  0.7558523E+01  0.3141563E+01
  0.2600541E+01  0.7620580E+01  0.3141570E+01
  0.2617994E+01  0.7797235E+01  0.3141554E+01
  0.2635447E+01  0.7785587E+01  0.3141558E+01
  0.2652900E+01  0.7755759E+01  0.3141552E+01
  0.2670354E+01  0.7846540E+01  0.3141552E+01
  0.2687807E+01  0.7791701E+01  0.3141566E+01
  0.2705260E+01  0.7825389E+01  0.3141557E+01
  0.2722714E+01  0.7830205E+01  0.3141551E+01
  0.2740167E+01  0.7626216E+01  0.3141572E+01
  0.2757620E+01  0.7590689E+01  0.3141548E+01
  0.2775074E+01  0.7766405E+01  0.3141553E+01
  0.2792527E+01  0.7820303E+01  0.3141556E+01
  0.2809980E+01  0.7821368E+01  0.3141549E+01
  0.2827433E+01  0.7824950E+01  0.3141556E+01
  0.2844887E+01  0.7833551E+01  0.3141556E+01
  0.2862340E+01  0.7813858E+01  0.3141557E+01
  0.2879793E+01  0.7765003E+01  0.3141550E+01
  0.2897247E+01  0.7584273E+01  0.3141563E+01
  0.2914700E+01  0.7630698E+01  0.3141563E+01
  0.2932153E+01  0.7832477E+01  0.3141566E+01
  0.2949607E+01  0.7815732E+01  0.3141561E+01
  0.2967060E+01  0.7782752E+01  0.3141563E+01
  0.2984513E+01  0.7871559E+01  0.3141546E+01
  0.3001966E+01  0.7795086E+01  0.3141555E+01
  0.3019420E+01  0.7829306E+01  0.3141563E+01
  0.3036873E+01  0.7843830E+01  0.3141559E+01
  0.3054326E+01  0.7632603E+01  0.3141558E+01
  0.3071780E+01  0.7595255E+01  0.3141549E+01
  0.3089233E+01  0.7769568E+01  0.3141551E+01
  0.3106686E+01  0.7828269E+01  0.3141564E+01
  0.3124139E+01  0.7848812E+01  0.3141557E+01
  0.3141593E+01  0.7826097E+01  0.3141549E+01
Zone t="Diffraction - beta =   0.000 at frequency  0.1500 rad/s",I=   181,F=POINT
  0.0000000E+00  0.1081371E+02  0.3141386E+01
  0.1745329E-01  0.1081180E+02  0.3141385E+01
  0.3490658E-01  0.1083295E+02  0.3141381E+01
  0.5235988E-01  0.1076965E+02  0.3141380E+01
  0.6981317E-01  0.1082517E+02  0.3141381E+01
  0.8726647E-01  0.1068795E+02  0.3141386E+01
  0.1047198E+00  0.1085753E+02  0.3141384E+01
  0.1221731E+00  0.1070802E+02  0.3141377E+01
  0.1396263E+00  0.1079835E+02  0.3141380E+01
  0.1570796E+00  0.1084930E+02  0.3141387E+01
  0.1745329E+00  0.1080258E+02  0.3141388E+01
  0.1919862E+00  0.1071419E+02  0.3141383E+01
  0.2094395E+00  0.1086245E+02  0.3141384E+01
  0.2268928E+00  0.1070097E+02  0.3141383E+01
  0.2443461E+00  0.1083608E+02  0.3141384E+01
  0.2617994E+00  0.1078450E+02  0.3141387E+01
  0.2792527E+00  0.1085180E+02  0.3141386E+01
  0.2967060E+00  0.1083102E+02  0.3141385E+01
  0.3141593E+00  0.1083569E+02  0.3141380E+01
  0.3316126E+00  0.1083935E+02  0.3141380E+01
  0.3490659E+00  0.1086060E+02  0.3141390E+01
  0.3665192E+00  0.1080161E+02  0.3141379E+01
  0.3839725E+00  0.1086002E+02  0.3141386E+01
  0.4014257E+00  0.1072846E+02  0.3141385E+01
  0.4188790E+00  0.1089658E+02  0.3141378E+01
  0.4363323E+00  0.1074989E+02  0.3141395E+01
  0.4537856E+00  0.1084094E+02  0.3141383E+01
  0.4712389E+00  0.1089244E+02  0.3141389E+01
  0.4886922E+00  0.1085345E+02  0.3141387E+01
  0.5061455E+00  0.1076812E+02  0.3141390E+01
  0.5235988E+00  0.1091135E+02  0.3141389E+01
  0.5410521E+00  0.1076674E+02  0.3141387E+01
  0.5585054E+00  0.1089158E+02  0.3141382E+01
  0.5759587E+00  0.1084427E+02  0.3141391E+01
  0.5934120E+00  0.1091537E+02  0.3141384E+01
  0.6108653E+00  0.1089395E+02  0.3141389E+01
  0.6283185E+00  0.1089994E+02  0.3141386E+01
  0.6457719E+00  0.1091072E+02  0.3141380E+01
  0.6632251E+00  0.1093238E+02  0.3141393E+01
  0.6806784E+00  0.1087686E+02  0.3141390E+01
  0.6981317E+00  0.1093720E+02  0.3141387E+01
  0.7155850E+00  0.1081908E+02  0.3141389E+01
  0.7330383E+00  0.1097623E+02  0.3141399E+01
  0.7504916E+00  0.1083611E+02  0.3141377E+01
  0.7679449E+00  0.1092628E+02  0.3141395E+01
  0.7853982E+00  0.1097421E+02  0.3141397E+01
  0.8028514E+00  0.1094585E+02  0.3141384E+01
  0.8203048E+00  0.1086420E+02  0.3141385E+01
  0.8377581E+00  0.1099909E+02  0.3141391E+01
  0.8552114E+00  0.1087832E+02  0.3141385E+01
  0.8726646E+00  0.1098638E+02  0.3141389E+01
  0.8901180E+00  0.1094328E+02  0.3141392E+01
  0.9075713E+00  0.1101755E+02  0.3141389E+01
  0.9250245E+00  0.1099567E+02  0.3141387E+01
  0.9424778E+00  0.1099997E+02  0.3141392E+01
  0.9599311E+00  0.1101879E+02  0.3141389E+01
  0.9773844E+00  0.1104083E+02  0.3141392E+01
  0.9948377E+00  0.1098844E+02  0.3141391E+01
  0.1012291E+01  0.1104896E+02  0.3141389E+01
  0.1029744E+01  0.1095042E+02  0.3141393E+01
  0.1047198E+01  0.1108854E+02  0.3141383E+01
  0.1064651E+01  0.1095795E+02  0.3141392E+01
  0.1082104E+01  0.1104605E+02  0.3141392E+01
  0.1099558E+01  0.1108676E+02  0.3141390E+01
  0.1117011E+01  0.1107070E+02  0.3141396E+01
  0.1134464E+01  0.1099349E+02  0.3141387E+01
  0.1151917E+01  0.1111742E+02  0.3141392E+01
  0.1169371E+01  0.1102518E+02  0.3141395E+01
  0.1186824E+01  0.1111104E+02  0.3141392E+01
  0.1204277E+01  0.1107205E+02  0.3141387E+01
  0.1221731E+01  0.1114773E+02  0.3141393E+01
  0.1239184E+01  0.1112638E+02  0.3141389E+01
  0.1256637E+01  0.1112606E+02  0.3141396E+01
  0.1274090E+01  0.1115354E+02  0.3141396E+01
  0.1291544E+01  0.1117557E+02  0.3141393E+01
  0.1308997E+01  0.1112507E+02  0.3141391E+01
  0.1326450E+01  0.1118470E+02  0.3141394E+01
  0.1343904E+01  0.1111001E+02  0.3141394E+01
  0.1361357E+01  0.1122238E+02  0.3141392E+01
  0.1378810E+01  0.1110386E+02  0.3141391E+01
  0.1396263E+01  0.1118846E+02  0.3141400E+01
  0.1413717E+01  0.1121903E+02  0.3141393E+01
  0.1431170E+01  0.1121590E+02  0.3141400E+01
  0.1448623E+01  0.1114306E+02  0.3141394E+01
  0.1466077E+01  0.1125445E+02  0.3141394E+01
  0.1483530E+01  0.1119294E+02  0.3141396E+01
  0.1500983E+01  0.1125365E+02  0.3141394E+01
  0.1518437E+01  0.1121789E+02  0.3141397E+01
  0.1535890E+01  0.1129424E+02  0.3141396E+01
  0.1553343E+01  0.1127178E+02  0.3141386E+01
  0.1570796E+01  0.1126585E+02  0.3141393E+01
  0.1588250E+01  0.1130024E+02  0.3141395E+01
  0.1605703E+01  0.1132339E+02  0.3141396E+01
  0.1623156E+01  0.1127356E+02  0.3141393E+01
  0.1640610E+01  0.1133082E+02  0.3141393E+01
  0.1658063E+01  0.1128192E+02  0.3141390E+01
  0.1675516E+01  0.1136494E+02  0.3141393E+01
  0.1692969E+01  0.1125934E+02  0.3141395E+01
  0.1710423E+01  0.1133966E+02  0.3141397E+01
  0.1727876E+01  0.1135834E+02  0.3141392E+01
  0.1745329E+01  0.1136708E+02  0.3141398E+01
  0.1762783E+01  0.1129871E+02  0.3141398E+01
  0.1780236E+01  0.1139710E+02  0.3141395E+01
  0.1797689E+01  0.1136509E+02  0.3141403E+01
  0.1815143E+01  0.1139973E+02  0.3141395E+01
  0.1832596E+01  0.1136615E+02  0.3141393E+01
  0.1850049E+01  0.1144224E+02  0.3141393E+01
  0.1867502E+01  0.1141964E+02  0.3141394E+01
  0.1884956E+01  0.1140563E+02  0.3141395E+01
  0.1902409E+01  0.1144672E+02  0.3141397E+01
  0.1919862E+01  0.1146969E+02  0.3141399E+01
  0.1937316E+01  0.1141920E+02  0.3141392E+01
  0.1954769E+01  0.1147319E+02  0.3141394E+01
  0.1972222E+01  0.1144971E+02  0.3141398E+01
  0.1989675E+01  0.1150194E+02  0.3141407E+01
  0.2007129E+01  0.1140889E+02  0.3141400E+01
  0.2024582E+01  0.1148464E+02  0.3141392E+01
  0.2042035E+01  0.1149045E+02  0.3141399E+01
  0.2059489E+01  0.1150951E+02  0.3141400E+01
  0.2076942E+01  0.1144428E+02  0.3141398E+01
  0.2094395E+01  0.1153112E+02  0.3141383E+01
  0.2111848E+01  0.1152485E+02  0.3141396E+01
  0.2129302E+01  0.1153534E+02  0.3141400E+01
  0.2146755E+01  0.1150283E+02  0.3141399E+01
  0.2164208E+01  0.1157700E+02  0.3141397E+01
  0.2181662E+01  0.1155320E+02  0.3141402E+01
  0.2199115E+01  0.1153170E+02  0.3141395E+01
  0.2216568E+01  0.1157631E+02  0.3141399E+01
  0.2234021E+01  0.1160076E+02  0.3141401E+01
  0.2251475E+01  0.1154788E+02  0.3141402E+01
  0.2268928E+01  0.1159780E+02  0.3141403E+01
  0.2286381E+01  0.1159674E+02  0.3141396E+01
  0.2303835E+01  0.1162035E+02  0.3141402E+01
  0.2321288E+01  0.1153832E+02  0.3141402E+01
  0.2338741E+01  0.1160950E+02  0.3141405E+01
  0.2356194E+01  0.1160299E+02  0.3141406E+01
  0.2373648E+01  0.1162923E+02  0.3141402E+01
  0.2391101E+01  0.1156640E+02  0.3141404E+01
  0.2408554E+01  0.1164343E+02  0.3141404E+01
  0.2426008E+01  0.1165641E+02  0.3141402E+01
  0.2443461E+01  0.1164723E+02  0.3141402E+01
  0.2460914E+01  0.1161413E+02  0.3141407E+01
  0.2478368E+01  0.1168561E+02  0.3141397E+01
  0.2495821E+01  0.1166132E+02  0.3141400E+01
  0.2513274E+01  0.1163179E+02  0.3141405E+01
  0.2530727E+01  0.1167806E+02  0.3141402E+01
  0.2548181E+01  0.1170244E+02  0.3141405E+01
  0.2565634E+01  0.1164729E+02  0.3141400E+01
  0.2583087E+01  0.1169237E+02  0.3141399E+01
  0.2600541E+01  0.1170855E+02  0.3141401E+01
  0.2617994E+01  0.1170840E+02  0.3141405E+01
  0.2635447E+01  0.1163497E+02  0.3141404E+01
  0.2652900E+01  0.1170189E+02  0.3141398E+01
  0.2670354E+01  0.1168474E+02  0.3141405E+01
  0.2687807E+01  0.1171453E+02  0.3141407E+01
  0.2705260E+01  0.1165288E+02  0.3141404E+01
  0.2722714E+01  0.1172306E+02  0.3141400E+01
  0.2740167E+01  0.1174689E+02  0.3141398E+01
  0.2757620E+01  0.1172453E+02  0.3141402E+01
  0.2775074E+01  0.1168973E+02  0.3141393E+01
  0.2792527E+01  0.1175698E+02  0.3141404E+01
  0.2809980E+01  0.1173280E+02  0.3141404E+01
  0.2827433E+01  0.1169623E+02  0.3141401E+01
  0.2844887E+01  0.1174209E+02  0.3141397E+01
  0.2862340E+01  0.1176584E+02  0.3141399E+01
  0.2879793E+01  0.1170711E+02  0.3141403E+01
  0.2897247E+01  0.1174829E+02  0.3141402E+01
  0.2914700E+01  0.1177438E+02  0.3141400E+01
  0.2932153E+01  0.1175720E+02  0.3141404E+01
  0.2949607E+01  0.1168902E+02  0.3141406E+01
  0.2967060E+01  0.1175273E+02  0.3141402E+01
  0.2984513E+01  0.1172815E+02  0.3141402E+01
  0.3001966E+01  0.1175714E+02  0.3141401E+01
  0.3019420E+01  0.1169543E+02  0.3141402E+01
  0.3036873E+01  0.1176222E+02  0.3141399E+01
  0.3054326E+01  0.1178759E+02  0.3141405E+01
  0.3071780E+01  0.1175896E+02  0.3141405E+01
  0.3089233E+01  0.1172180E+02  0.3141399E+01
  0.3106686E+01  0.1178474E+02  0.3141408E+01
  0.3124139E+01  0.1176023E+02  0.3141402E+01
  0.3141593E+01  0.1171833E+02  0.3141398E+01
Zone t="Diffraction - beta =   0.000 at frequency  0.2000 rad/s",I=   181,F=POINT
  0.0000000E+00  0.1354288E+02  0.3140931E+01
  0.1745329E-01  0.1360172E+02  0.3140933E+01
  0.3490658E-01  0.1358916E+02  0.3140930E+01
  0.5235988E-01  0.1358934E+02  0.3140934E+01
  0.6981317E-01  0.1362540E+02  0.3140928E+01
  0.8726647E-01  0.1361278E+02  0.3140930E+01
  0.1047198E+00  0.1364163E+02  0.3140936E+01
  0.1221731E+00  0.1360046E+02  0.3140930E+01
  0.1396263E+00  0.1381129E+02  0.3140935E+01
  0.1570796E+00  0.1361196E+02  0.3140934E+01
  0.1745329E+00  0.1381674E+02  0.3140934E+01
  0.1919862E+00  0.1361140E+02  0.3140929E+01
  0.2094395E+00  0.1365806E+02  0.3140932E+01
  0.2268928E+00  0.1363783E+02  0.3140935E+01
  0.2443461E+00  0.1365314E+02  0.3140933E+01
  0.2617994E+00  0.1362536E+02  0.3140935E+01
  0.2792527E+00  0.1363182E+02  0.3140932E+01
  0.2967060E+00  0.1364825E+02  0.3140932E+01
  0.3141593E+00  0.1359769E+02  0.3140933E+01
  0.3316126E+00  0.1366097E+02  0.3140933E+01
  0.3490659E+00  0.1365379E+02  0.3140937E+01
  0.3665192E+00  0.1366051E+02  0.3140932E+01
  0.3839725E+00  0.1370395E+02  0.3140939E+01
  0.4014257E+00  0.1369525E+02  0.3140940E+01
  0.4188790E+00  0.1372471E+02  0.3140935E+01
  0.4363323E+00  0.1369526E+02  0.3140934E+01
  0.4537856E+00  0.1391140E+02  0.3140936E+01
  0.4712389E+00  0.1371755E+02  0.3140936E+01
  0.4886922E+00  0.1392747E+02  0.3140934E+01
  0.5061455E+00  0.1372705E+02  0.3140938E+01
  0.5235988E+00  0.1377741E+02  0.3140941E+01
  0.5410521E+00  0.1376606E+02  0.3140939E+01
  0.5585054E+00  0.1378447E+02  0.3140941E+01
  0.5759587E+00  0.1376528E+02  0.3140937E+01
  0.5934120E+00  0.1377583E+02  0.3140941E+01
  0.6108653E+00  0.1379554E+02  0.3140941E+01
  0.6283185E+00  0.1375745E+02  0.3140937E+01
  0.6457719E+00  0.1382054E+02  0.3140939E+01
  0.6632251E+00  0.1381777E+02  0.3140939E+01
  0.6806784E+00  0.1383231E+02  0.3140938E+01
  0.6981317E+00  0.1388114E+02  0.3140939E+01
  0.7155850E+00  0.1387600E+02  0.3140941E+01
  0.7330383E+00  0.1390480E+02  0.3140946E+01
  0.7504916E+00  0.1388633E+02  0.3140944E+01
  0.7679449E+00  0.1410805E+02  0.3140945E+01
  0.7853982E+00  0.1391829E+02  0.3140945E+01
  0.8028514E+00  0.1413258E+02  0.3140948E+01
  0.8203048E+00  0.1393609E+02  0.3140949E+01
  0.8377581E+00  0.1398417E+02  0.3140951E+01
  0.8552114E+00  0.1398678E+02  0.3140947E+01
  0.8726646E+00  0.1400649E+02  0.3140950E+01
  0.8901180E+00  0.1399556E+02  0.3140944E+01
  0.9075713E+00  0.1400848E+02  0.3140952E+01
  0.9250245E+00  0.1402956E+02  0.3140951E+01
  0.9424778E+00  0.1400612E+02  0.3140953E+01
  0.9599311E+00  0.1406362E+02  0.3140952E+01
  0.9773844E+00  0.1406597E+02  0.3140956E+01
  0.9948377E+00  0.1408760E+02  0.3140954E+01
  0.1012291E+01  0.1413935E+02  0.3140955E+01
  0.1029744E+01  0.1413750E+02  0.3140960E+01
  0.1047198E+01  0.1416081E+02  0.3140953E+01
  0.1064651E+01  0.1415533E+02  0.3140958E+01
  0.1082104E+01  0.1438103E+02  0.3140959E+01
  0.1099558E+01  0.1419459E+02  0.3140960E+01
  0.1117011E+01  0.1441114E+02  0.3140965E+01
  0.1134464E+01  0.1421830E+02  0.3140958E+01
  0.1151917E+01  0.1426055E+02  0.3140966E+01
  0.1169371E+01  0.1427701E+02  0.3140960E+01
  0.1186824E+01  0.1429739E+02  0.3140961E+01
  0.1204277E+01  0.1429329E+02  0.3140958E+01
  0.1221731E+01  0.1430688E+02  0.3140962E+01
  0.1239184E+01  0.1432745E+02  0.3140964E+01
  0.1256637E+01  0.1431948E+02  0.3140965E+01
  0.1274090E+01  0.1436758E+02  0.3140965E+01
  0.1291544E+01  0.1437462E+02  0.3140969E+01
  0.1308997E+01  0.1440162E+02  0.3140968E+01
  0.1326450E+01  0.1445361E+02  0.3140967E+01
  0.1343904E+01  0.1445370E+02  0.3140970E+01
  0.1361357E+01  0.1446786E+02  0.3140970E+01
  0.1378810E+01  0.1447548E+02  0.3140970E+01
  0.1396263E+01  0.1470299E+02  0.3140974E+01
  0.1413717E+01  0.1451940E+02  0.3140973E+01
  0.1431170E+01  0.1473787E+02  0.3140973E+01
  0.1448623E+01  0.1454500E+02  0.3140973E+01
  0.1466077E+01  0.1457844E+02  0.3140977E+01
  0.1483530E+01  0.1460890E+02  0.3140974E+01
  0.1500983E+01  0.1462868E+02  0.3140981E+01