VARIABLES="w (rad/s)"
"abs(F   1   1)" "angle(F   1   1)"
"abs(F   1   2)" "angle(F   1   2)"
"abs(F   1   3)" "angle(F   1   3)"
"abs(F   1   4)" "angle(F   1   4)"
"abs(F   1   5)" "angle(F   1   5)"
"abs(F   1   6)" "angle(F   1   6)"
Zone t="Diffraction force - beta =   0.000",I=    40,F=POINT
  0.5000000E-01  0.1450067E+04 -0.3141593E+01  0.1178067E-04 -0.2236055E+01  0.6765874E+03  0.1573598E+01  0.1411488E-03 -0.1005751E+01  0.4443004E+04 -0.3141593E+01  0.2122059E-04  0.3130357E+01
  0.9999999E-01  0.5813756E+04 -0.3141592E+01  0.1265237E-03 -0.1461284E+01  0.2729845E+04  0.1581679E+01  0.1322165E-02 -0.1806678E+01  0.1780739E+05 -0.3141592E+01  0.3914714E-04 -0.4874185E-01
  0.1500000E+00  0.1313086E+05 -0.3141583E+01  0.1087461E-02 -0.2456511E+01  0.6128285E+04  0.1594512E+01  0.9679778E-02  0.1681367E+01  0.4042168E+05 -0.3141583E+01  0.2767644E-03  0.3103680E+01
  0.2000000E+00  0.2324340E+05 -0.3141541E+01  0.9248666E-03 -0.3346310E+00  0.1080129E+05  0.1611340E+01  0.4467786E-02  0.7219625E+00  0.7168541E+05 -0.3141540E+01  0.8031274E-04  0.3070285E+01
  0.2500000E+00  0.3614623E+05 -0.3141398E+01  0.3706376E-02 -0.1470795E+01  0.1662682E+05  0.1631298E+01  0.1449101E-01  0.1307684E+01  0.1119315E+06 -0.3141397E+01  0.4196340E-03 -0.3132502E+01
  0.3000000E+00  0.5179208E+05 -0.3141030E+01  0.5049041E-02 -0.5179045E+00  0.2342744E+05  0.1653507E+01  0.8679545E-02 -0.1490721E+01  0.1613598E+06 -0.3141026E+01  0.1015204E-03  0.4468425E+00
  0.3500000E+00  0.7003055E+05 -0.3140221E+01  0.6033035E-02 -0.2728930E+00  0.3092231E+05  0.1677350E+01  0.1522715E-01  0.6910175E+00  0.2193865E+06 -0.3140212E+01  0.5163809E-03  0.2918116E+01
  0.4000001E+00  0.9081246E+05 -0.3138656E+01  0.5681256E-02  0.2579292E+01  0.3890531E+05  0.1701893E+01  0.3109620E-01  0.1211796E+01  0.2859747E+06 -0.3138634E+01  0.4394856E-03 -0.2365578E+00
  0.4500001E+00  0.1141904E+06 -0.3135902E+01  0.4999021E-02  0.1963915E+01  0.4704852E+05  0.1726724E+01  0.5217104E-01 -0.3963660E+00  0.3627493E+06 -0.3135864E+01  0.2148457E-03 -0.3034857E+01
  0.5000001E+00  0.1398471E+06 -0.3131400E+01  0.9373717E-02 -0.2075405E+01  0.5497330E+05  0.1751713E+01  0.1059975E-01  0.8996525E+00  0.4472082E+06 -0.3131324E+01  0.3970219E-03 -0.3844259E-01
  0.5500002E+00  0.1681219E+06 -0.3124505E+01  0.2135325E-01  0.9572235E-01  0.6265542E+05  0.1775627E+01  0.6431936E-01  0.7138756E+00  0.5430611E+06 -0.3124388E+01  0.1314937E-02 -0.3077726E+01
  0.5999997E+00  0.1986759E+06 -0.3114450E+01  0.1836147E-01  0.3877593E+00  0.6981356E+05  0.1798503E+01  0.3179979E-01  0.1803206E+01  0.6484746E+06 -0.3114275E+01  0.1174035E-02 -0.2984991E+01
  0.6500000E+00  0.2311777E+06 -0.3100415E+01  0.1540194E-01  0.3327942E+00  0.7590706E+05  0.1821275E+01  0.1136016E+00 -0.2850599E+01  0.7616341E+06 -0.3100118E+01  0.7363848E-03  0.1037923E+00
  0.7000000E+00  0.2659034E+06 -0.3081635E+01  0.3403300E-02 -0.3045047E+01  0.8148750E+05  0.1841622E+01  0.7700498E-01  0.2062805E+01  0.8874272E+06 -0.3081247E+01  0.2687670E-02  0.3101841E+01
  0.7500001E+00  0.3019768E+06 -0.3057220E+01  0.5451644E-01  0.6538014E+00  0.8542327E+05  0.1862668E+01  0.9103968E-01 -0.1144335E+01  0.1020731E+07 -0.3056696E+01  0.1487634E-02  0.1752664E+00
  0.8000000E+00  0.3386260E+06 -0.3026415E+01  0.1786628E-01 -0.1137136E+01  0.8873704E+05  0.1881369E+01  0.1250671E+00  0.6214408E+00  0.1158354E+07 -0.3025636E+01  0.2075700E-02  0.3119537E+01
  0.8500000E+00  0.3755368E+06 -0.2988960E+01  0.4206072E-01  0.2847321E+01  0.9046768E+05  0.1899880E+01  0.1054040E+00 -0.1693284E+01  0.1303551E+07 -0.2987973E+01  0.1966490E-02  0.3024937E+01
  0.9000000E+00  0.4113705E+06 -0.2944357E+01  0.4694948E-02  0.2765139E+00  0.9119875E+05  0.1917355E+01  0.1579726E-01 -0.6566379E+00  0.1450428E+07 -0.2943185E+01  0.4942058E-02  0.2986596E+01
  0.9500000E+00  0.4444568E+06 -0.2892433E+01  0.3690495E-01 -0.3031649E+01  0.9099373E+05  0.1933262E+01  0.7148955E-01 -0.6971432E+00  0.1591882E+07 -0.2891006E+01  0.3869961E-02  0.2294819E+01
  0.1000000E+01  0.4725032E+06 -0.2833293E+01  0.3121070E-01  0.7979950E+00  0.8929296E+05  0.1949112E+01  0.8791711E-01  0.5242266E+00  0.1717795E+07 -0.2831373E+01  0.1628193E-02 -0.2915935E+01
  0.1050000E+01  0.4947734E+06 -0.2768699E+01  0.8434015E-02  0.1541845E+01  0.8695091E+05  0.1964004E+01  0.6588165E-01 -0.2456528E+00  0.1828970E+07 -0.2766349E+01  0.3200429E-02 -0.2327534E+01
  0.1100000E+01  0.5094969E+06 -0.2699504E+01  0.8508448E-01 -0.2684642E+01  0.8376040E+05  0.1977484E+01  0.2062992E+00 -0.4868780E-01  0.1916902E+07 -0.2696753E+01  0.3975969E-02  0.2354838E+01
  0.1150000E+01  0.5148106E+06 -0.2626657E+01  0.1044363E+00  0.2838324E+01  0.7953418E+05  0.1990179E+01  0.4072095E+00  0.1105414E+00  0.1971129E+07 -0.2623356E+01  0.3802624E-02 -0.2767793E+01
  0.1200000E+01  0.5108690E+06 -0.2552950E+01  0.4122485E-01  0.2026085E+01  0.7492298E+05  0.2002357E+01  0.4985723E-01  0.2889358E+00  0.1991910E+07 -0.2549104E+01  0.7010347E-02 -0.2627306E+01
  0.1250000E+01  0.4975589E+06 -0.2479907E+01  0.1633154E-01 -0.2549314E+01  0.7009198E+05  0.2013684E+01  0.2028548E+00  0.5596678E+00  0.1977134E+07 -0.2475545E+01  0.3854891E-02  0.2734622E+01
  0.1300000E+01  0.4753078E+06 -0.2408473E+01  0.5103580E-01  0.1482395E+00  0.6455794E+05  0.2022578E+01  0.1294030E+00  0.9047476E+00  0.1924819E+07 -0.2403460E+01  0.3315198E-02 -0.1947884E+01
  0.1350000E+01  0.4461830E+06 -0.2340926E+01  0.2022752E-01 -0.2835468E+01  0.5892800E+05  0.2030991E+01  0.2612899E+00 -0.3041389E+01  0.1841353E+07 -0.2335178E+01  0.9841623E-03  0.2089942E+01
  0.1400000E+01  0.4109810E+06 -0.2277480E+01  0.1460489E-01  0.1709147E+01  0.5341315E+05  0.2038932E+01  0.2545274E+00  0.2893502E+01  0.1729118E+07 -0.2271023E+01  0.2699555E-02  0.1388921E+01
  0.1450000E+01  0.3717388E+06 -0.2219074E+01  0.3089863E-01  0.2657184E+01  0.4801209E+05  0.2045610E+01  0.2375282E+00 -0.3060111E+01  0.1594732E+07 -0.2211759E+01  0.4401308E-02  0.1910089E+01
  0.1500000E+01  0.3295112E+06 -0.2165395E+01  0.6570044E-01 -0.3310137E+00  0.4265615E+05  0.2049758E+01  0.4098660E+00 -0.3063445E+01  0.1441434E+07 -0.2157127E+01  0.1962790E-02  0.9928188E-01
  0.1550000E+01  0.2861416E+06 -0.2116560E+01  0.8877245E-01 -0.3016044E+01  0.3752729E+05  0.2053146E+01  0.1210575E+00 -0.1354085E+00  0.1275341E+07 -0.2107057E+01  0.1983643E-02 -0.1570796E+01
  0.1600000E+01  0.2421705E+06 -0.2072242E+01  0.2455353E-01 -0.6131697E+00  0.3279143E+05  0.2056098E+01  0.5233217E+00  0.3100352E+01  0.1099956E+07 -0.2061425E+01  0.3869961E-02 -0.8467735E+00
  0.1650000E+01  0.1986987E+06 -0.2032391E+01  0.5969382E-01 -0.1013982E+00  0.2846267E+05  0.2058389E+01  0.2064478E+00 -0.3020080E+01  0.9196962E+06 -0.2019825E+01  0.2516544E-03 -0.2896614E+01
  0.1700000E+01  0.1563433E+06 -0.1995721E+01  0.4309377E-01 -0.3034455E+01  0.2443627E+05  0.2058507E+01  0.5070676E+00  0.3125974E+01  0.7367400E+06 -0.1980639E+01  0.1151609E-02 -0.5585993E+00
  0.1750000E+01  0.1154668E+06 -0.1961198E+01  0.4330164E-02 -0.2906870E+01  0.2081962E+05  0.2058489E+01  0.7515135E-01 -0.1263225E+00  0.5536564E+06 -0.1942390E+01  0.2210787E-02  0.1106572E+00
  0.1800000E+01  0.7663016E+05 -0.1927297E+01  0.3633542E-01 -0.3108831E+01  0.1763854E+05  0.2059080E+01  0.1919399E+00 -0.2941841E-01  0.3733362E+06 -0.1901758E+01  0.4882812E-03  0.0000000E+00
  0.1850000E+01  0.3995988E+05 -0.1886182E+01  0.4614380E-01  0.7275004E-02  0.1487675E+05  0.2061568E+01  0.1357012E+00 -0.2931121E+01  0.1972856E+06 -0.1843388E+01  0.1777371E-02 -0.2863293E+01
  0.1900000E+01  0.5843329E+04 -0.1665068E+01  0.3071004E-01 -0.3049043E+01  0.1250896E+05  0.2066315E+01  0.9737507E-02 -0.1937408E+01  0.2986162E+05 -0.1412742E+01  0.1726335E-02  0.2999696E+01
  0.1950000E+01  0.2605162E+05  0.1212235E+01  0.1469985E-01 -0.2902656E+01  0.1038748E+05  0.2072016E+01  0.1919749E+00  0.3084214E+01  0.1370590E+06  0.1171538E+01  0.3243489E-02  0.3455556E+00
  0.2000000E+01  0.5500155E+05  0.1257898E+01  0.9308212E-02 -0.4548502E+00  0.8699225E+04  0.2090803E+01  0.3641259E+00  0.3081086E+01  0.2906808E+06  0.1244030E+01  0.1529537E-02  0.1071450E+01
