VARIABLES="w (rad/s)"
"abs(F   1   1)" "angle(F   1   1)"
"abs(F   1   2)" "angle(F   1   2)"
"abs(F   1   3)" "angle(F   1   3)"
"abs(F   1   4)" "angle(F   1   4)"
"abs(F   1   5)" "angle(F   1   5)"
"abs(F   1   6)" "angle(F   1   6)"
Zone t="Excitation force - beta =   0.000",I=    40,F=POINT
  0.5000001E+00  0.3099899E+06 -0.3136995E+01  0.4297146E-01 -0.1879269E+01  0.5322441E+06 -0.1589381E+01  0.1286494E+01 -0.1564462E+01  0.9982393E+06 -0.3136993E+01  0.1478942E-02 -0.3201192E+00
  0.5384617E+00  0.3547959E+06 -0.3134657E+01  0.5455933E-01 -0.1420890E+01  0.5028167E+06 -0.1594795E+01  0.6383936E+00 -0.1579975E+01  0.1150765E+07 -0.3134655E+01  0.2548001E-02  0.2896614E+01
  0.5769233E+00  0.4015533E+06 -0.3131469E+01  0.5103431E-01 -0.1819111E+01  0.4732282E+06 -0.1601140E+01  0.3653483E+00  0.1665578E+01  0.1312500E+07 -0.3131465E+01  0.3275634E-02 -0.2163966E+01
  0.6153844E+00  0.4500355E+06 -0.3127234E+01  0.3191517E-02 -0.1204054E+01  0.4433030E+06 -0.1608475E+01  0.6440648E+00 -0.1608143E+01  0.1482230E+07 -0.3127228E+01  0.2354803E-02  0.3299471E+00
  0.6538461E+00  0.4998291E+06 -0.3121745E+01  0.2817355E-01 -0.1198285E+01  0.4138638E+06 -0.1616840E+01  0.1511486E+01 -0.1552422E+01  0.1659417E+07 -0.3121737E+01  0.3776912E-02 -0.1292497E+01
  0.6923077E+00  0.5509868E+06 -0.3114790E+01  0.6111277E-01  0.1659049E+01  0.3844582E+06 -0.1626361E+01  0.1547985E+01  0.1606526E+01  0.1846452E+07 -0.3114780E+01  0.8680091E-03 -0.1767102E+00
  0.7307692E+00  0.6027408E+06 -0.3106139E+01  0.1052065E+00 -0.1269515E+01  0.3559592E+06 -0.1636961E+01  0.2380143E+00  0.2128852E+01  0.2039454E+07 -0.3106125E+01  0.1051853E-01 -0.3079174E+01
  0.7692307E+00  0.6546387E+06 -0.3095577E+01  0.5021011E-02 -0.1364174E+00  0.3281944E+06 -0.1648843E+01  0.6479607E+00 -0.1804740E+01  0.2236293E+07 -0.3095562E+01  0.4605223E-02  0.2535209E+01
  0.8076923E+00  0.7061255E+06 -0.3082947E+01  0.9163868E-01  0.8762130E+00  0.3009689E+06 -0.1662236E+01  0.1178417E+01 -0.1604831E+01  0.2436172E+07 -0.3082929E+01  0.5151621E-02  0.3043692E+01
  0.8461539E+00  0.7567099E+06 -0.3068166E+01  0.6704371E-01  0.1506681E+00  0.2754282E+06 -0.1676601E+01  0.2819515E+01  0.1564432E+01  0.2639492E+07 -0.3068137E+01  0.7080670E-02 -0.2955185E+01
  0.8846153E+00  0.8055429E+06 -0.3051114E+01  0.5265179E-01 -0.3611450E+00  0.2508976E+06 -0.1692582E+01  0.2356401E+00 -0.1121165E+01  0.2842340E+07 -0.3051076E+01  0.4125662E-02  0.2813994E+01
  0.9230768E+00  0.8515747E+06 -0.3031784E+01  0.8531754E-01 -0.2775077E+01  0.2273312E+06 -0.1710514E+01  0.7538381E+00 -0.1409214E+01  0.3040702E+07 -0.3031741E+01  0.5474786E-02  0.2946657E+01
  0.9615384E+00  0.8934478E+06 -0.3010285E+01  0.2980217E-01  0.1438312E+01  0.2054147E+06 -0.1729498E+01  0.2367152E+00  0.1430066E+01  0.3228412E+07 -0.3010232E+01  0.5738299E-02  0.3122978E+01
  0.1000000E+01  0.9303032E+06 -0.2986859E+01  0.1091729E-01  0.1554023E+01  0.1849856E+06 -0.1750043E+01  0.1938330E+01 -0.1494205E+01  0.3401376E+07 -0.2986806E+01  0.1903993E-02  0.1442217E+01
  0.1038461E+01  0.9613802E+06 -0.2962164E+01  0.5252073E-01 -0.1413259E+01  0.1657959E+06 -0.1772833E+01  0.1625393E+00  0.2448730E+01  0.3559711E+07 -0.2962093E+01  0.3362683E-02  0.7038890E+00
  0.1076923E+01  0.9857388E+06 -0.2936645E+01  0.3898777E-01  0.2856546E+01  0.1477822E+06 -0.1798485E+01  0.1619469E+00  0.1459764E+01  0.3698668E+07 -0.2936543E+01  0.1095953E-01  0.3009639E+01
  0.1115385E+01  0.1002247E+07 -0.2910846E+01  0.2216495E-01 -0.1189906E+01  0.1315994E+06 -0.1823763E+01  0.2290643E+00 -0.1122104E+01  0.3811474E+07 -0.2910707E+01  0.2672380E-02  0.5198543E+00
  0.1153846E+01  0.1010879E+07 -0.2885464E+01  0.4094537E-01 -0.9393700E+00  0.1167333E+06 -0.1851288E+01  0.9462357E+00 -0.1667962E+01  0.3896152E+07 -0.2885318E+01  0.4579265E-02 -0.2773461E+01
  0.1192308E+01  0.1011396E+07 -0.2861634E+01  0.3147592E-01  0.1921141E+01  0.1030885E+06 -0.1881511E+01  0.1348440E+00 -0.1482872E+01  0.3952639E+07 -0.2861460E+01  0.7572804E-02  0.3426078E-01
  0.1230769E+01  0.1004349E+07 -0.2840030E+01  0.4512044E-01 -0.2723770E+00  0.9061473E+05 -0.1915059E+01  0.8454327E+00 -0.1229633E+01  0.3981474E+07 -0.2839808E+01  0.8365379E-02  0.2527281E+01
  0.1269231E+01  0.9900283E+06 -0.2821229E+01  0.6167352E-01  0.2378979E+00  0.7943180E+05 -0.1949089E+01  0.3281836E+00 -0.1515533E+01  0.3981065E+07 -0.2820956E+01  0.7481478E-03 -0.2936202E+01
  0.1307692E+01  0.9690508E+06 -0.2806035E+01  0.8096782E-01  0.9744828E+00  0.6943010E+05 -0.1984033E+01  0.1592450E+00 -0.9641366E+00  0.3953502E+07 -0.2805705E+01  0.9624414E-02 -0.1463813E+00
  0.1346154E+01  0.9432921E+06 -0.2794940E+01  0.3648622E-01 -0.1144844E+01  0.6047832E+05 -0.2021215E+01  0.5898347E-01  0.1327825E+01  0.3904669E+07 -0.2794560E+01  0.7147110E-02 -0.1370662E+00
  0.1384615E+01  0.9131418E+06 -0.2788323E+01  0.3365826E-01  0.2848877E+01  0.5246605E+05 -0.2061915E+01  0.3681685E+00 -0.6484331E+00  0.3835682E+07 -0.2787901E+01  0.1947148E-01 -0.8001747E-01
  0.1423077E+01  0.8799668E+06 -0.2786417E+01  0.2115573E-01  0.2481272E+00  0.4533577E+05 -0.2106535E+01  0.4191776E+00 -0.6184470E+00  0.3751405E+07 -0.2785910E+01  0.3452672E-03  0.2356194E+01
  0.1461538E+01  0.8449049E+06 -0.2789222E+01  0.1209678E+00  0.2586696E+00  0.3905185E+05 -0.2150987E+01  0.4910149E+00 -0.8173321E+00  0.3654837E+07 -0.2788679E+01  0.7610144E-02 -0.2724590E+01
  0.1500000E+01  0.8082199E+06 -0.2797091E+01  0.7942864E-01  0.7186179E-01  0.3351120E+05 -0.2197678E+01  0.9246449E-01  0.2210106E+01  0.3548324E+07 -0.2796398E+01  0.7973390E-02  0.3042876E+01
  0.1538461E+01  0.7713609E+06 -0.2809489E+01  0.3331306E-01  0.3087403E+01  0.2868197E+05 -0.2245725E+01  0.1701561E+00 -0.1843923E+01  0.3435822E+07 -0.2808799E+01  0.9446890E-03 -0.2113986E+01
  0.1576923E+01  0.7345283E+06 -0.2826654E+01  0.9077832E-01 -0.2283032E+01  0.2445707E+05 -0.2297835E+01  0.1142183E+01 -0.1800349E+01  0.3319603E+07 -0.2825920E+01  0.2504859E-02 -0.3872936E+00
  0.1615385E+01  0.6983627E+06 -0.2848266E+01  0.3390296E-01  0.2610667E+01  0.2079108E+05 -0.2354224E+01  0.1155702E+00 -0.1070709E+01  0.3201832E+07 -0.2847541E+01  0.7177537E-02 -0.2555949E+01
  0.1653846E+01  0.6631766E+06 -0.2874229E+01  0.1855520E-01 -0.1168604E+01  0.1762029E+05 -0.2416620E+01  0.7265741E+00 -0.1793815E+01  0.3084159E+07 -0.2873447E+01  0.3393906E-02 -0.2228685E+01
  0.1692307E+01  0.6291366E+06 -0.2904176E+01  0.1909788E-02 -0.3849572E+00  0.1488272E+05 -0.2477531E+01  0.4324178E+00 -0.1022173E+01  0.2966988E+07 -0.2903477E+01  0.3112793E-02  0.1080839E+01
  0.1730769E+01  0.5963057E+06 -0.2938275E+01  0.3967496E-01  0.2974674E+01  0.1255488E+05 -0.2546737E+01  0.8017267E-01  0.6028294E+00  0.2851488E+07 -0.2937531E+01  0.7302889E-02 -0.2696634E+01
  0.1769231E+01  0.5650490E+06 -0.2975839E+01  0.1781832E-01  0.2842795E+01  0.1057500E+05 -0.2616805E+01  0.6087045E+00 -0.4865303E+00  0.2738907E+07 -0.2975260E+01  0.4294265E-02  0.2787813E+01
  0.1807692E+01  0.5352656E+06 -0.3017019E+01  0.2503029E-01 -0.2535286E+01  0.8931481E+04 -0.2699092E+01  0.5671476E+00  0.2940361E+01  0.2629532E+07 -0.3016566E+01  0.6367145E-02  0.2930332E+01
  0.1846154E+01  0.5069981E+06 -0.3061553E+01  0.2396356E-01 -0.2919781E+01  0.7571540E+04 -0.2787007E+01  0.6920438E-01  0.7951621E+00  0.2523683E+07 -0.3061275E+01  0.7611444E-02  0.3035142E+01
  0.1884615E+01  0.4802290E+06 -0.3109267E+01  0.2626698E-01  0.1273664E+01  0.6475683E+04 -0.2885587E+01  0.2826248E+00  0.2164669E+01  0.2421529E+07 -0.3109175E+01  0.7117866E-03 -0.2111216E+01
  0.1923077E+01  0.4549010E+06  0.3123158E+01  0.6747841E-01 -0.2880160E+01  0.5565918E+04 -0.2980735E+01  0.3533817E+00 -0.2530422E+01  0.2323056E+07  0.3123024E+01  0.6594340E-02  0.3113822E+01
  0.1961538E+01  0.4309841E+06  0.3069484E+01  0.9450451E-02  0.1916958E+00  0.4843438E+04 -0.3076652E+01  0.2689148E+00 -0.1673770E+01  0.2228436E+07  0.3069122E+01  0.6372256E-03 -0.2914570E+00
  0.2000000E+01  0.4084376E+06  0.3013114E+01  0.4998079E-01  0.3012822E+00  0.4324935E+04  0.3108165E+01  0.2571401E+00 -0.2560529E+01  0.2137766E+07  0.3012455E+01  0.3422870E-02 -0.8737749E+00
