VARIABLES="w (rad/s)"
"abs(F   1   1)" "angle(F   1   1)"
"abs(F   1   2)" "angle(F   1   2)"
"abs(F   1   3)" "angle(F   1   3)"
"abs(F   1   4)" "angle(F   1   4)"
"abs(F   1   5)" "angle(F   1   5)"
"abs(F   1   6)" "angle(F   1   6)"
Zone t="Diffraction force - beta =   0.000 deg",I=    41,F=POINT
  0.1000000E+00  0.1349991E+05 -0.3141592E+01  0.7751311E-01  0.1572082E+01  0.7474462E+06 -0.1570836E+01  0.7480437E-01  0.1572097E+01  0.4173366E+05 -0.3141590E+01  0.2448856E-03  0.1461537E+01
  0.1475000E+00  0.2932372E+05  0.3141592E+01  0.3143792E-01  0.1558359E+01  0.7353000E+06 -0.1570981E+01  0.5978132E+00 -0.1572197E+01  0.9094571E+05 -0.3141592E+01  0.1222901E-02  0.1498988E+01
  0.1950000E+00  0.5093906E+05 -0.3141575E+01  0.3939568E-01  0.1581496E+01  0.7187327E+06 -0.1571349E+01  0.1017061E+01  0.1572740E+01  0.1584050E+06 -0.3141571E+01  0.9841331E-03  0.1613448E+01
  0.2425000E+00  0.7813893E+05 -0.3141521E+01  0.9537380E-02 -0.1564996E+01  0.6980473E+06 -0.1572084E+01  0.1535418E+00  0.1498186E+01  0.2438731E+06 -0.3141522E+01  0.8376910E-03 -0.1118350E+01
  0.2900000E+00  0.1106965E+06 -0.3141390E+01  0.3669072E-01 -0.1570173E+01  0.6735228E+06 -0.1573346E+01  0.7373570E+00  0.1575008E+01  0.3470536E+06 -0.3141391E+01  0.1157338E-02  0.2118565E+01
  0.3375000E+00  0.1482561E+06 -0.3141104E+01  0.5462504E-01  0.1545374E+01  0.6456514E+06 -0.1575301E+01  0.3748627E+00 -0.1570796E+01  0.4670336E+06 -0.3141103E+01  0.1203469E-02  0.2475267E+01
  0.3850000E+00  0.1905211E+06 -0.3140546E+01  0.5046303E-02 -0.2034782E+01  0.6149771E+06 -0.1578115E+01  0.4383101E+00 -0.1538380E+01  0.6038036E+06 -0.3140547E+01  0.1508543E-02  0.1682291E+01
  0.4325000E+00  0.2371118E+06 -0.3139560E+01  0.7840970E-01  0.1574396E+01  0.5820134E+06 -0.1581939E+01  0.1564408E+01  0.1560838E+01  0.7563531E+06 -0.3139560E+01  0.9382914E-03 -0.4636476E+00
  0.4800000E+00  0.2876970E+06 -0.3137933E+01  0.1515459E+00  0.1575025E+01  0.5472436E+06 -0.1586912E+01  0.4535189E+00  0.1487191E+01  0.9247538E+06 -0.3137933E+01  0.9296602E-03  0.1975688E+01
  0.5275000E+00  0.3418060E+06 -0.3135402E+01  0.4560110E-01  0.1782170E+01  0.5111363E+06 -0.1593162E+01  0.9703584E+00  0.1654266E+01  0.1107249E+07 -0.3135402E+01  0.2372779E-02  0.2874777E+01
  0.5750000E+00  0.3991711E+06 -0.3131652E+01  0.6359518E-01  0.1440139E+01  0.4747053E+06 -0.1600800E+01  0.2958573E+00 -0.1629418E+01  0.1305340E+07 -0.3131652E+01  0.1112558E-02 -0.1085679E+01
  0.6225000E+00  0.4590572E+06 -0.3126319E+01  0.3499117E-01 -0.1777215E+01  0.4378315E+06 -0.1609940E+01  0.2536674E+01 -0.1555493E+01  0.1515267E+07 -0.3126319E+01  0.2943889E-02  0.2177489E+01
  0.6700000E+00  0.5211377E+06 -0.3119017E+01  0.6346995E-01 -0.1718949E+01  0.4014888E+06 -0.1620692E+01  0.1126755E+01  0.1613386E+01  0.1738085E+07 -0.3119016E+01  0.1931608E-02  0.4848458E+00
  0.7175000E+00  0.5848879E+06 -0.3109330E+01  0.7486291E-01 -0.1580173E+01  0.3656407E+06 -0.1633180E+01  0.1264643E+01  0.1551393E+01  0.1973896E+07 -0.3109327E+01  0.5769679E-02  0.1059844E+00
  0.7650000E+00  0.6489518E+06 -0.3096840E+01  0.1225759E+00  0.1893295E+01  0.3311873E+06 -0.1647471E+01  0.1044558E+01 -0.1496638E+01  0.2216066E+07 -0.3096838E+01  0.4360597E-02  0.2621579E+01
  0.8125000E+00  0.7125178E+06 -0.3081224E+01  0.5285386E-01 -0.2405054E+01  0.2976656E+06 -0.1663973E+01  0.1237676E+01 -0.1585147E+01  0.2463036E+07 -0.3081219E+01  0.1042970E-02  0.3587711E+00
  0.8600000E+00  0.7745876E+06 -0.3062295E+01  0.6706025E-01 -0.1273837E+01  0.2664388E+06 -0.1682165E+01  0.1764157E+01 -0.1521614E+01  0.2714546E+07 -0.3062282E+01  0.2607432E-03  0.2782813E+01
  0.9075000E+00  0.8333156E+06 -0.3039885E+01  0.1343703E+00 -0.1472981E+01  0.2367143E+06 -0.1703007E+01  0.1386900E+01 -0.1629360E+01  0.2962629E+07 -0.3039867E+01  0.4547177E-02  0.1160305E+00
  0.9550000E+00  0.8867458E+06 -0.3014086E+01  0.3298092E-01 -0.2787604E+00  0.2089656E+06 -0.1726242E+01  0.9383251E+00  0.1527331E+01  0.3199236E+07 -0.3014063E+01  0.5875426E-02 -0.2172606E+00
  0.1002500E+01  0.9325112E+06 -0.2985291E+01  0.2010508E-01  0.4330108E+00  0.1836461E+06 -0.1751497E+01  0.3654534E+00  0.1859374E+01  0.3413724E+07 -0.2985269E+01  0.3205653E-02  0.2274906E+01
  0.1050000E+01  0.9694153E+06 -0.2954576E+01  0.1515260E+00  0.1515988E+01  0.1602165E+06 -0.1780253E+01  0.5200589E+00 -0.2020902E+01  0.3605084E+07 -0.2954531E+01  0.2472029E-02 -0.9365542E+00
  0.1097500E+01  0.9957661E+06 -0.2922815E+01  0.8087181E-01  0.1663002E+01  0.1389125E+06 -0.1811828E+01  0.9330496E+00  0.1248922E+01  0.3764298E+07 -0.2922736E+01  0.5340974E-02  0.2622978E+01
  0.1145000E+01  0.1009616E+07 -0.2891212E+01  0.6030647E-01 -0.1627777E+00  0.1199844E+06 -0.1844855E+01  0.5913585E+00  0.1290427E+01  0.3880508E+07 -0.2891106E+01  0.7997483E-02  0.2462978E+01
  0.1192500E+01  0.1011361E+07 -0.2861527E+01  0.5756255E-01 -0.7837113E+00  0.1029661E+06 -0.1881833E+01  0.5511267E+00  0.1358794E+01  0.3954050E+07 -0.2861392E+01  0.8101827E-02  0.1056655E+00
  0.1240000E+01  0.1001503E+07 -0.2835260E+01  0.6747542E-01  0.2393060E+01  0.8772242E+05 -0.1924010E+01  0.2153906E+00 -0.2271939E+01  0.3985091E+07 -0.2835055E+01  0.5514823E-02  0.3052937E+01
  0.1287500E+01  0.9805744E+06 -0.2813575E+01  0.1035506E+00  0.2423339E+00  0.7447951E+05 -0.1965858E+01  0.3477919E+00 -0.1529016E+01  0.3971618E+07 -0.2813281E+01  0.8673491E-02 -0.3871306E-01
  0.1335000E+01  0.9512355E+06 -0.2797721E+01  0.3005094E-01 -0.7420151E-01  0.6292431E+05 -0.2010520E+01  0.6272759E+00 -0.2038785E+01  0.3921904E+07 -0.2797385E+01  0.7677097E-02  0.5063264E+00
  0.1382500E+01  0.9148569E+06 -0.2788580E+01  0.1219660E+00 -0.1195215E+01  0.5284047E+05 -0.2060019E+01  0.7256086E+00  0.8700486E+00  0.3840646E+07 -0.2788193E+01  0.5232763E-02 -0.6155038E+00
  0.1430000E+01  0.8737447E+06 -0.2786596E+01  0.7476976E-01 -0.4966918E+00  0.4410062E+05 -0.2115694E+01  0.4670873E+00 -0.8976676E+00  0.3735514E+07 -0.2786095E+01  0.1131046E-01  0.3183376E+00
  0.1477500E+01  0.8297242E+06 -0.2791958E+01  0.3194189E-01  0.2458766E+01  0.3663079E+05 -0.2170835E+01  0.4020095E+00 -0.2050044E+01  0.3612188E+07 -0.2791344E+01  0.3658166E-02  0.1230578E+01
  0.1525000E+01  0.7842755E+06 -0.2804581E+01  0.4182103E-01  0.2390054E-01  0.3028112E+05 -0.2228885E+01  0.3707822E+00  0.2296721E+00  0.3476093E+07 -0.2803946E+01  0.3404864E-02 -0.2536741E+00
  0.1572500E+01  0.7387358E+06 -0.2824446E+01  0.2609047E-01 -0.5866239E+00  0.2489576E+05 -0.2292147E+01  0.3187245E+00  0.5397914E+00  0.3333514E+07 -0.2823738E+01  0.3100840E-02  0.8376155E+00
  0.1620000E+01  0.6940768E+06 -0.2851146E+01  0.2627110E-01  0.2633253E+01  0.2037227E+05 -0.2361809E+01  0.6880010E+00  0.8809677E+00  0.3188011E+07 -0.2850448E+01  0.3336898E-02  0.6947386E+00
  0.1667500E+01  0.6509348E+06 -0.2884412E+01  0.1644657E-01 -0.2044817E+01  0.1659426E+05 -0.2438545E+01  0.2781785E+00  0.1817438E+01  0.3042649E+07 -0.2883662E+01  0.1067348E-01 -0.2821650E+01
  0.1715000E+01  0.6095698E+06 -0.2923889E+01  0.2395948E-01  0.1412191E+01  0.1346099E+05 -0.2519145E+01  0.2183713E+00 -0.4039906E-01  0.2898782E+07 -0.2923120E+01  0.3573555E-02  0.1370662E+00
  0.1762500E+01  0.5704097E+06 -0.2968983E+01  0.1347116E-01  0.2644506E+01  0.1089374E+05 -0.2603131E+01  0.3527394E+00  0.1311148E+01  0.2758560E+07 -0.2968404E+01  0.4581932E-02  0.2869911E+00
  0.1810000E+01  0.5335202E+06 -0.3019606E+01  0.2572712E-01 -0.2965571E+01  0.8843985E+04 -0.2704202E+01  0.2123769E+00 -0.1567332E+01  0.2623222E+07 -0.3019160E+01  0.3111634E-02 -0.5294862E+00
  0.1857500E+01  0.4989432E+06 -0.3075312E+01  0.4415190E-01 -0.1990846E+01  0.7225700E+04 -0.2814744E+01  0.3070369E+00 -0.2548478E+01  0.2493275E+07 -0.3075080E+01  0.1314737E-02  0.3805065E+00
  0.1905000E+01  0.4666235E+06 -0.3135801E+01  0.7447554E-02  0.1056733E+01  0.5968867E+04 -0.2934776E+01  0.6172452E-01 -0.6220852E+00  0.2368957E+07 -0.3135830E+01  0.4403952E-02 -0.2449787E+00
  0.1952500E+01  0.4364776E+06  0.3082340E+01  0.4606599E-01  0.3029399E+01  0.4979032E+04 -0.3048737E+01  0.2809301E+00  0.1847167E+01  0.2250387E+07  0.3082051E+01  0.2893864E-02  0.4825134E+00
  0.2000000E+01  0.4084352E+06  0.3013113E+01  0.1265445E-01  0.1420713E+01  0.4324471E+04  0.3111109E+01  0.6595881E-01  0.1594135E+01  0.2137812E+07  0.3012455E+01  0.3431565E-02 -0.3052543E+01
