VARIABLES="w (rad/s)"
"abs(F   1   1)" "angle(F   1   1)"
"abs(F   1   2)" "angle(F   1   2)"
"abs(F   1   3)" "angle(F   1   3)"
"abs(F   1   4)" "angle(F   1   4)"
"abs(F   1   5)" "angle(F   1   5)"
"abs(F   1   6)" "angle(F   1   6)"
Zone t="Excitation force - beta =   0.000",I=    40,F=POINT
  0.5000000E-01  0.3378965E+04  0.3141587E+01  0.3089306E-01 -0.1570869E+01  0.7552589E+06 -0.1570799E+01  0.6905489E+00 -0.1570683E+01  0.1042755E+05 -0.3141592E+01  0.9768010E-03  0.1571284E+01
  0.9999999E-01  0.1349991E+05 -0.3141593E+01  0.7799923E-01  0.1570839E+01  0.7474462E+06 -0.1570836E+01  0.1887030E-01 -0.1597282E+01  0.4168525E+05 -0.3141591E+01  0.1711383E-02 -0.1594761E+01
  0.1500000E+00  0.3031498E+05 -0.3141584E+01  0.3741227E-01  0.1598560E+01  0.7345418E+06 -0.1570994E+01  0.5062039E+00  0.1573012E+01  0.9392141E+05 -0.3141591E+01  0.1739794E-02  0.1723779E+01
  0.2000000E+00  0.5352199E+05 -0.3141569E+01  0.1314385E-01 -0.1511992E+01  0.7167555E+06 -0.1571407E+01  0.1102076E+01  0.1568972E+01  0.1662386E+06 -0.3141570E+01  0.2451890E-03 -0.1806342E+01
  0.2500000E+00  0.8291831E+05 -0.3141508E+01  0.1169176E+00  0.1571319E+01  0.6944040E+06 -0.1572244E+01  0.1178885E+01 -0.1567599E+01  0.2585602E+06 -0.3141507E+01  0.2670560E-03 -0.1951303E+01
  0.3000000E+00  0.1182095E+06 -0.3141347E+01  0.4381074E-01 -0.1481778E+01  0.6679101E+06 -0.1573694E+01  0.1053085E+01 -0.1570919E+01  0.3705709E+06 -0.3141346E+01  0.2442289E-02 -0.1379067E+01
  0.3500000E+00  0.1589536E+06 -0.3140989E+01  0.6082799E-01 -0.1481563E+01  0.6378459E+06 -0.1575952E+01  0.9912386E+00  0.1557419E+01  0.5010728E+06 -0.3140989E+01  0.4275866E-03  0.2870646E+01
  0.4000001E+00  0.2047711E+06 -0.3140290E+01  0.4647392E-01 -0.1660386E+01  0.6047465E+06 -0.1579206E+01  0.1111185E+01  0.1562282E+01  0.6493249E+06 -0.3140290E+01  0.1634726E-02  0.1758581E+01
  0.4500001E+00  0.2553520E+06 -0.3139048E+01  0.4966670E-01  0.1585083E+01  0.5692945E+06 -0.1583631E+01  0.3028282E+00 -0.1400777E+01  0.8161674E+06 -0.3139047E+01  0.6115425E-03  0.8648764E+00
  0.5000001E+00  0.3099898E+06 -0.3136994E+01  0.8959483E-02  0.1885950E+01  0.5322441E+06 -0.1589381E+01  0.7075244E+00 -0.1574506E+01  0.9982392E+06 -0.3136992E+01  0.2133886E-02 -0.2523838E+01
  0.5500002E+00  0.3686139E+06 -0.3133799E+01  0.6569420E-01  0.1274518E+01  0.4939950E+06 -0.1596597E+01  0.2814525E+00 -0.1407538E+01  0.1198324E+07 -0.3133796E+01  0.3060224E-02  0.2928061E+01
  0.5999997E+00  0.4304595E+06 -0.3129067E+01  0.1645973E-01  0.3616237E-01  0.4552087E+06 -0.1605424E+01  0.5868195E+00 -0.1588167E+01  0.1413591E+07 -0.3129062E+01  0.4788051E-02 -0.2975616E+00
  0.6500000E+00  0.4947536E+06 -0.3122356E+01  0.5918073E-01  0.1202045E+01  0.4168054E+06 -0.1615952E+01  0.1044226E+01  0.1664218E+01  0.1641146E+07 -0.3122349E+01  0.1235208E-02  0.2666895E+01
  0.7000000E+00  0.5613138E+06 -0.3113203E+01  0.5966464E-02  0.2006419E+01  0.3785721E+06 -0.1628413E+01  0.1855759E+01 -0.1588492E+01  0.1884698E+07 -0.3113192E+01  0.1414466E-02  0.1923254E+01
  0.7500001E+00  0.6287812E+06 -0.3101109E+01  0.4984887E-01  0.4636477E+00  0.3420051E+06 -0.1642729E+01  0.1239302E+00 -0.1224592E+01  0.2137790E+07 -0.3101095E+01  0.2185418E-02 -0.1514911E+01
  0.8000000E+00  0.6958686E+06 -0.3085639E+01  0.3271799E-01  0.1145847E+01  0.3063753E+06 -0.1659425E+01  0.1061607E+01 -0.1483411E+01  0.2395697E+07 -0.3085622E+01  0.2449451E-02 -0.8107192E-01
  0.8500000E+00  0.7617114E+06 -0.3066564E+01  0.6842740E-01  0.2176179E+01  0.2729301E+06 -0.1678124E+01  0.1424080E+01  0.1584297E+01  0.2659911E+07 -0.3066533E+01  0.2254225E-02 -0.2916316E+01
  0.9000000E+00  0.8243712E+06 -0.3043650E+01  0.6911103E-01 -0.1457067E+01  0.2413573E+06 -0.1699495E+01  0.6219851E+00  0.1581689E+01  0.2922459E+07 -0.3043610E+01  0.3546478E-02 -0.3081321E+01
  0.9500000E+00  0.8815441E+06 -0.3016945E+01  0.5929437E-01  0.2237158E+01  0.2117997E+06 -0.1723727E+01  0.4288189E+00 -0.1472713E+01  0.3173854E+07 -0.3016896E+01  0.1110844E-01  0.2808548E+01
  0.1000000E+01  0.9303032E+06 -0.2986858E+01  0.1741980E-01 -0.5653312E+00  0.1849856E+06 -0.1750043E+01  0.1904108E+01 -0.1533316E+01  0.3401376E+07 -0.2986806E+01  0.3015609E-02  0.3735769E+00
  0.1050000E+01  0.9694356E+06 -0.2954570E+01  0.7546784E-01  0.1547341E+01  0.1602744E+06 -0.1780188E+01  0.4885698E+00 -0.1483863E+01  0.3603632E+07 -0.2954492E+01  0.2027540E-02 -0.2005832E+01
  0.1100000E+01  0.9967966E+06 -0.2921133E+01  0.8593676E-01  0.2780120E+01  0.1379241E+06 -0.1813395E+01  0.6984273E+00  0.1266553E+01  0.3770093E+07 -0.2921016E+01  0.4600980E-02  0.8805166E+00
  0.1150000E+01  0.1010370E+07 -0.2887951E+01  0.1288014E+00  0.2489277E+01  0.1181614E+06 -0.1848432E+01  0.3798233E+00 -0.1162826E+00  0.3888903E+07 -0.2887804E+01  0.5002860E-02  0.2697042E+01
  0.1200000E+01  0.1010637E+07 -0.2857105E+01  0.2874167E-01  0.2218173E+01  0.1005068E+06 -0.1887898E+01  0.5438455E+00  0.1465218E+01  0.3960758E+07 -0.2856924E+01  0.1654112E-01 -0.2785413E+01
  0.1250000E+01  0.9980067E+06 -0.2830253E+01  0.3383083E-01  0.2050884E+01  0.8482780E+05 -0.1932753E+01  0.6448013E+00  0.1312697E+01  0.3984726E+07 -0.2829994E+01  0.5868587E-02  0.4636476E+00
  0.1300000E+01  0.9735848E+06 -0.2808781E+01  0.5659662E-01  0.6025094E+00  0.7133718E+05 -0.1976953E+01  0.1035515E+01  0.1523625E+01  0.3960705E+07 -0.2808445E+01  0.5862631E-02 -0.2729182E+01
  0.1350000E+01  0.9404334E+06 -0.2794074E+01  0.1674750E-01  0.2943036E+01  0.5963687E+05 -0.2025107E+01  0.1117224E+01 -0.1792582E+01  0.3898528E+07 -0.2793691E+01  0.5006371E-02 -0.2438539E-01
  0.1400000E+01  0.9001481E+06 -0.2786976E+01  0.3989707E-01 -0.1775692E+01  0.4951696E+05 -0.2079135E+01  0.1133579E+01  0.1823218E+01  0.3803414E+07 -0.2786531E+01  0.3735755E-02  0.9420000E+00
  0.1450000E+01  0.8555451E+06 -0.2787910E+01  0.7971542E-01  0.1956208E+01  0.4085195E+05 -0.2138031E+01  0.2926630E+00 -0.2645412E+01  0.3684853E+07 -0.2787348E+01  0.6840295E-02  0.6078020E+00
  0.1500000E+01  0.8082201E+06 -0.2797091E+01  0.7594693E-01 -0.6691205E+00  0.3351121E+05 -0.2197678E+01  0.6825785E+00  0.2231820E+01  0.3548324E+07 -0.2796398E+01  0.5206055E-02 -0.2967048E+01
  0.1550000E+01  0.7603412E+06 -0.2814106E+01  0.1095998E+00 -0.2450794E+01  0.2735177E+05 -0.2260656E+01  0.5846979E+00 -0.1360554E+01  0.3401449E+07 -0.2813426E+01  0.1685112E-02 -0.9526521E+00
  0.1600000E+01  0.7127588E+06 -0.2839063E+01  0.5619025E-01 -0.1083587E+01  0.2219462E+05 -0.2331171E+01  0.9621133E+00 -0.2171889E+01  0.3249085E+07 -0.2838360E+01  0.4650802E-02 -0.2286540E+01
  0.1650000E+01  0.6666418E+06 -0.2871454E+01  0.6062451E-01  0.5061197E-01  0.1791584E+05 -0.2410282E+01  0.8706584E+00 -0.1820132E+01  0.3095916E+07 -0.2870672E+01  0.2945539E-02 -0.3037800E+01
  0.1700000E+01  0.6224540E+06 -0.2910712E+01  0.4314059E-01 -0.2910340E+01  0.1438614E+05 -0.2491405E+01  0.5242894E+00 -0.3061296E+01  0.2943731E+07 -0.2909980E+01  0.4057805E-02 -0.2741675E+00
  0.1750000E+01  0.5804902E+06 -0.2956594E+01  0.1169474E-01  0.1995778E+01  0.1152195E+05 -0.2580582E+01  0.1120827E+00  0.5680462E+00  0.2794806E+07 -0.2955947E+01  0.3949050E-02 -0.2994231E+01
  0.1800000E+01  0.5411075E+06 -0.3008487E+01  0.3819583E-01 -0.3065717E+01  0.9233567E+04 -0.2681756E+01  0.2302573E+00  0.4482203E+00  0.2651157E+07 -0.3008018E+01  0.4641057E-02 -0.3206138E-01
  0.1850000E+01  0.5042545E+06 -0.3066185E+01  0.4684397E-01 -0.9542265E-01  0.7450845E+04 -0.2796472E+01  0.1796910E+00  0.2363065E+01  0.2513304E+07 -0.3065923E+01  0.5925442E-03 -0.2539305E+01
  0.1900000E+01  0.4699270E+06 -0.3129213E+01  0.2638543E-01  0.2695533E+01  0.6090774E+04 -0.2924536E+01  0.1416589E+00 -0.1562476E+01  0.2381692E+07 -0.3129211E+01  0.1987161E-02 -0.2399646E+01
  0.1950000E+01  0.4380146E+06  0.3085870E+01  0.2752524E-01 -0.2155724E+01  0.5015205E+04 -0.3043582E+01  0.3176206E+00 -0.2238615E+01  0.2256415E+07  0.3085598E+01  0.1100328E-02 -0.5549900E-01
  0.2000000E+01  0.4084375E+06  0.3013114E+01  0.1324688E-01  0.1843116E-01  0.4324939E+04  0.3108167E+01  0.3944188E+00 -0.2743038E+01  0.2137765E+07  0.3012455E+01  0.1125433E-02  0.1352127E+01
