VARIABLES="w (rad/s)"
"abs(F   1   1)" "angle(F   1   1)"
"abs(F   1   2)" "angle(F   1   2)"
"abs(F   1   3)" "angle(F   1   3)"
"abs(F   1   4)" "angle(F   1   4)"
"abs(F   1   5)" "angle(F   1   5)"
"abs(F   1   6)" "angle(F   1   6)"
Zone t="Excitation force - beta =   0.000",I=    80,F=POINT
  0.5000000E-01  0.3378964E+04  0.3141591E+01  0.6444098E-02 -0.1565506E+01  0.7552588E+06 -0.1570799E+01  0.8913212E+00 -0.1570784E+01  0.1042755E+05 -0.3141570E+01  0.2437841E-03 -0.1573730E+01
  0.9999999E-01  0.1349991E+05 -0.3141592E+01  0.7794023E-01  0.1570600E+01  0.7474462E+06 -0.1570836E+01  0.9492152E+00 -0.1571504E+01  0.4168525E+05 -0.3141588E+01  0.2767243E-03  0.1075162E+01
  0.1500000E+00  0.3031498E+05 -0.3141584E+01  0.1333231E-01  0.1644971E+01  0.7345416E+06 -0.1570994E+01  0.1002506E+01  0.1571116E+01  0.9392142E+05 -0.3141588E+01  0.3164502E-02  0.1597923E+01
  0.2000000E+00  0.5352199E+05 -0.3141568E+01  0.7491620E-01 -0.1587015E+01  0.7167555E+06 -0.1571407E+01  0.4341213E+00  0.1579469E+01  0.1662387E+06 -0.3141570E+01  0.5717594E-03  0.2707787E+01
  0.2500000E+00  0.8291834E+05 -0.3141508E+01  0.7993717E-01  0.1565451E+01  0.6944039E+06 -0.1572244E+01  0.1313513E+01 -0.1573794E+01  0.2585602E+06 -0.3141508E+01  0.4982526E-03 -0.1771195E+01
  0.3000000E+00  0.1182095E+06 -0.3141346E+01  0.4562806E-01 -0.1600062E+01  0.6679099E+06 -0.1573694E+01  0.1147233E+01 -0.1569959E+01  0.3705708E+06 -0.3141346E+01  0.2073196E-02  0.1237118E+01
  0.3500000E+00  0.1589536E+06 -0.3140988E+01  0.9168955E-01 -0.1577953E+01  0.6378459E+06 -0.1575952E+01  0.1016070E+01  0.1564819E+01  0.5010728E+06 -0.3140988E+01  0.2498496E-02  0.1736447E+01
  0.4000001E+00  0.2047711E+06 -0.3140290E+01  0.2078540E-01  0.1580707E+01  0.6047462E+06 -0.1579206E+01  0.1481907E+01  0.1573165E+01  0.6493248E+06 -0.3140290E+01  0.1798115E-02  0.2634288E+01
  0.4499998E+00  0.2553519E+06 -0.3139048E+01  0.1218928E-01 -0.2032695E+01  0.5692944E+06 -0.1583631E+01  0.1088527E+01 -0.1531986E+01  0.8161670E+06 -0.3139047E+01  0.1740188E-02 -0.1097345E+01
  0.5000001E+00  0.3099899E+06 -0.3136995E+01  0.4644595E-01 -0.1976745E+01  0.5322441E+06 -0.1589381E+01  0.1169132E+01 -0.1573068E+01  0.9982393E+06 -0.3136993E+01  0.1645970E-02 -0.1864869E+00
  0.5500002E+00  0.3686141E+06 -0.3133799E+01  0.1013160E+00  0.1725788E+01  0.4939948E+06 -0.1596597E+01  0.3210437E+00  0.1551498E+01  0.1198324E+07 -0.3133796E+01  0.2667900E-02  0.4150304E+00
  0.5999997E+00  0.4304595E+06 -0.3129067E+01  0.8842903E-01 -0.1439625E+01  0.4552088E+06 -0.1605424E+01  0.1253078E+01 -0.1552554E+01  0.1413592E+07 -0.3129062E+01  0.1865570E-02 -0.1305979E+01
  0.6499999E+00  0.4947535E+06 -0.3122356E+01  0.3304139E-01  0.6885889E+00  0.4168055E+06 -0.1615952E+01  0.2730152E+00  0.1576833E+01  0.1641147E+07 -0.3122349E+01  0.2512887E-02  0.3050384E+01
  0.6999999E+00  0.5613138E+06 -0.3113203E+01  0.9954995E-01  0.1347929E+01  0.3785722E+06 -0.1628413E+01  0.1699657E+01 -0.1521975E+01  0.1884698E+07 -0.3113192E+01  0.1202255E-02 -0.1152572E+01
  0.7499999E+00  0.6287813E+06 -0.3101109E+01  0.3201101E-01 -0.7018793E+00  0.3420051E+06 -0.1642728E+01  0.1476129E+00  0.9427602E+00  0.2137790E+07 -0.3101094E+01  0.4531424E-02 -0.2665898E+01
  0.8000000E+00  0.6958687E+06 -0.3085639E+01  0.7120112E-01 -0.4203622E+00  0.3063754E+06 -0.1659425E+01  0.8995535E+00 -0.1340447E+01  0.2395697E+07 -0.3085622E+01  0.9190618E-02 -0.2956245E+01
  0.8500000E+00  0.7617114E+06 -0.3066564E+01  0.1299323E+00  0.1744059E+01  0.2729300E+06 -0.1678124E+01  0.1689111E+01  0.1517436E+01  0.2659912E+07 -0.3066533E+01  0.2320590E-02  0.2909372E+01
  0.8999999E+00  0.8243712E+06 -0.3043650E+01  0.3078622E-01 -0.2033169E+01  0.2413573E+06 -0.1699495E+01  0.1550930E+00  0.2066657E+01  0.2922458E+07 -0.3043611E+01  0.5317158E-02  0.3089915E+01
  0.9499999E+00  0.8815440E+06 -0.3016945E+01  0.5973393E-01  0.2384737E+01  0.2117998E+06 -0.1723727E+01  0.3310894E+00 -0.1137822E+01  0.3173854E+07 -0.3016896E+01  0.1892090E-02  0.1570796E+01
  0.1000000E+01  0.9303032E+06 -0.2986859E+01  0.1091729E-01  0.1554023E+01  0.1849856E+06 -0.1750043E+01  0.1938330E+01 -0.1494205E+01  0.3401376E+07 -0.2986806E+01  0.1903993E-02  0.1442217E+01
  0.1050000E+01  0.9694358E+06 -0.2954570E+01  0.1163668E+00  0.1984820E+01  0.1602745E+06 -0.1780188E+01  0.7323512E+00 -0.1385979E+01  0.3603632E+07 -0.2954492E+01  0.2703703E-02 -0.3025638E+01
  0.1100000E+01  0.9967966E+06 -0.2921134E+01  0.1002808E+00 -0.2652016E+01  0.1379240E+06 -0.1813395E+01  0.6003159E+00  0.1540290E+01  0.3770093E+07 -0.2921016E+01  0.3533752E-02 -0.2156404E+01
  0.1150000E+01  0.1010370E+07 -0.2887950E+01  0.2513586E-01  0.2345248E+01  0.1181613E+06 -0.1848433E+01  0.4504506E+00 -0.2668344E+00  0.3888903E+07 -0.2887805E+01  0.5887995E-02  0.1188365E+01
  0.1200000E+01  0.1010637E+07 -0.2857105E+01  0.5069526E-01  0.1387981E+01  0.1005068E+06 -0.1887898E+01  0.6137902E+00  0.1002653E+01  0.3960759E+07 -0.2856924E+01  0.8201452E-02  0.2885783E+01
  0.1250000E+01  0.9980068E+06 -0.2830253E+01  0.2461504E-01 -0.9487451E+00  0.8482777E+05 -0.1932753E+01  0.5633175E+00  0.7982889E+00  0.3984726E+07 -0.2829994E+01  0.1261853E-01 -0.8474797E-01
  0.1300000E+01  0.9735851E+06 -0.2808781E+01  0.3657846E-01 -0.1142322E+01  0.7133714E+05 -0.1976953E+01  0.7583066E+00  0.1463014E+01  0.3960706E+07 -0.2808445E+01  0.4884338E-02  0.3116598E+01
  0.1350000E+01  0.9404335E+06 -0.2794074E+01  0.3660362E-02  0.2394522E+01  0.5963686E+05 -0.2025107E+01  0.1034019E+01 -0.1810310E+01  0.3898528E+07 -0.2793691E+01  0.3454827E-02  0.1012197E+01
  0.1400000E+01  0.9001481E+06 -0.2786976E+01  0.1329391E-01  0.1690453E+01  0.4951694E+05 -0.2079136E+01  0.9297948E+00  0.1705262E+01  0.3803414E+07 -0.2786531E+01  0.7121066E-02 -0.3034248E+01
  0.1450000E+01  0.8555452E+06 -0.2787910E+01  0.8564801E-01  0.7876658E+00  0.4085197E+05 -0.2138030E+01  0.1818585E+00 -0.8608778E+00  0.3684854E+07 -0.2787348E+01  0.9582919E-02 -0.3028298E+01
  0.1500000E+01  0.8082202E+06 -0.2797091E+01  0.3558091E-01 -0.2488531E+00  0.3351123E+05 -0.2197678E+01  0.1796879E+00  0.3079733E+01  0.3548324E+07 -0.2796398E+01  0.1101638E-01  0.2660445E+01
  0.1550000E+01  0.7603411E+06 -0.2814107E+01  0.1237490E+00 -0.2341197E+01  0.2735177E+05 -0.2260656E+01  0.6771365E+00 -0.1300789E+01  0.3401449E+07 -0.2813426E+01  0.5767438E-02  0.1269963E+01
  0.1600000E+01  0.7127589E+06 -0.2839063E+01  0.3674798E-03  0.2297439E+01  0.2219460E+05 -0.2331171E+01  0.9119015E+00 -0.2495095E+01  0.3249086E+07 -0.2838360E+01  0.4451907E-02  0.2856702E+01
  0.1650000E+01  0.6666424E+06 -0.2871454E+01  0.5034257E-01  0.1187909E+00  0.1791587E+05 -0.2410281E+01  0.7986307E+00 -0.1745924E+01  0.3095917E+07 -0.2870671E+01  0.2383499E-02  0.2909036E+01
  0.1700000E+01  0.6224539E+06 -0.2910711E+01  0.4236500E-01 -0.3123943E+01  0.1438613E+05 -0.2491405E+01  0.4468036E+00  0.2954882E+01  0.2943731E+07 -0.2909980E+01  0.6042172E-02 -0.1712693E+01
  0.1750000E+01  0.5804905E+06 -0.2956594E+01  0.1606775E-01 -0.4393558E-01  0.1152194E+05 -0.2580581E+01  0.8723222E-01  0.7739181E+00  0.2794807E+07 -0.2955947E+01  0.5787811E-02  0.3009389E+01
  0.1800000E+01  0.5411075E+06 -0.3008487E+01  0.2405712E-01  0.2590548E+00  0.9233555E+04 -0.2681756E+01  0.1728502E+00 -0.2939364E+01  0.2651156E+07 -0.3008018E+01  0.5053334E-02 -0.3003005E+01
  0.1850000E+01  0.5042548E+06 -0.3066185E+01  0.5222456E-01 -0.1503058E+00  0.7450838E+04 -0.2796473E+01  0.1028102E+00  0.2582278E+01  0.2513305E+07 -0.3065922E+01  0.5873841E-02 -0.3071396E+01
  0.1900000E+01  0.4699272E+06 -0.3129213E+01  0.2040041E-01  0.1855877E+01  0.6090769E+04 -0.2924537E+01  0.2642812E+00 -0.2316912E+01  0.2381692E+07 -0.3129211E+01  0.8571040E-02  0.1862228E+00
  0.1950000E+01  0.4380147E+06  0.3085870E+01  0.2165150E-01  0.2883623E+01  0.5015200E+04 -0.3043585E+01  0.3841573E+00 -0.2143262E+01  0.2256415E+07  0.3085598E+01  0.9841626E-03 -0.1243550E+00
  0.2000000E+01  0.4084378E+06  0.3013114E+01  0.5112069E-01 -0.1867415E+00  0.4324937E+04  0.3108165E+01  0.2850153E+00 -0.2645498E+01  0.2137766E+07  0.3012455E+01  0.4946485E-02 -0.2749098E+00
  0.2050000E+01  0.3810712E+06  0.2935633E+01  0.2052706E-01  0.2685924E+01  0.4121003E+04  0.2984903E+01  0.1534145E+00 -0.2727461E+01  0.2025617E+07  0.2934817E+01  0.7324214E-03  0.3141592E+01
  0.2100000E+01  0.3557100E+06  0.2854030E+01  0.2364080E-02 -0.1765658E+01  0.4926650E+04  0.2893216E+01  0.1282985E+00 -0.1925631E+01  0.1919612E+07  0.2852974E+01  0.8333031E-02  0.8800735E-01
  0.2150000E+01  0.3321983E+06  0.2768112E+01  0.7249127E-02 -0.1354411E+01  0.8903785E+04  0.2889925E+01  0.7882647E-01  0.2855675E+01  0.1819255E+07  0.2766974E+01  0.2089507E-02  0.1453688E+01
  0.2200000E+01  0.3103818E+06  0.2677964E+01  0.8733908E-02 -0.1534100E+01  0.1073733E+05 -0.1726316E+00  0.5168109E-01  0.2592312E+01  0.1724440E+07  0.2676778E+01  0.3498225E-02  0.1048769E+00
  0.2250000E+01  0.2904300E+06  0.2584103E+01  0.1377686E-01  0.2858729E+01  0.1648640E+04  0.1681474E+00  0.5361982E-01  0.1054743E+00  0.1635562E+07  0.2583365E+01  0.1954078E-02  0.1602036E+01
  0.2300000E+01  0.2717607E+06  0.2487120E+01  0.1314243E-01  0.3020550E+01  0.6926174E+03  0.8729411E+00  0.1748724E+00  0.1920442E+00  0.1551867E+07  0.2486655E+01  0.3690482E-02 -0.5971766E+00
  0.2350000E+01  0.2548407E+06  0.2386083E+01  0.1055489E-01 -0.5815873E+00  0.6040519E+03  0.1036446E+01  0.7620537E-01 -0.8592136E+00  0.1473132E+07  0.2386828E+01  0.1062542E-02  0.2529691E+01
  0.2400000E+01  0.2391478E+06  0.2282037E+01  0.1387414E-01  0.3071147E+01  0.5766165E+03  0.9956334E+00  0.1129591E+00 -0.3123138E+01  0.1399404E+07  0.2283966E+01  0.2038305E-02 -0.7191822E+00
  0.2450000E+01  0.2245338E+06  0.2174885E+01  0.2513608E-02 -0.2921278E+01  0.5172280E+03  0.1065193E+01  0.1423606E+00  0.4334453E+00  0.1329451E+07  0.2178596E+01  0.3058702E-02  0.1638194E+01
  0.2500000E+01  0.2110696E+06  0.2065318E+01  0.1739526E-01  0.2741539E+01  0.4407185E+03  0.1130759E+01  0.1080443E+00  0.1845253E+01  0.1263838E+07  0.2070984E+01  0.4967901E-03  0.1756144E+01
  0.2549999E+01  0.1984873E+06  0.1956418E+01  0.6542746E-02  0.4229603E+00  0.3428463E+03  0.1301050E+01  0.1589102E+00  0.2198880E+00  0.1202379E+07  0.1963231E+01  0.1454175E-02  0.2708452E+01
  0.2600000E+01  0.1869340E+06  0.1850500E+01  0.2538652E-02  0.1096397E+01  0.2551329E+03  0.1412511E+01  0.1290585E+00  0.2753462E+01  0.1145426E+07  0.1858688E+01  0.2860850E-02  0.1377585E+01
  0.2650001E+01  0.1761101E+06  0.1754283E+01  0.4098936E-02  0.1645367E+00  0.1890172E+03  0.1551547E+01  0.4124567E-01  0.5273377E+00  0.1093169E+07  0.1765717E+01  0.3910539E-02 -0.1523956E+01
  0.2700000E+01  0.1650437E+06  0.1710375E+01  0.4743596E-02  0.2773033E+01  0.1163400E+03  0.1550515E+01  0.2480895E-01  0.1325602E+01  0.1044052E+07  0.1724009E+01  0.2516544E-02 -0.6823165E+00
  0.2750000E+01  0.4893127E+05  0.2583082E+01  0.8123998E-02  0.3102139E+01  0.5525643E+02  0.1568229E+01  0.4506852E-01 -0.2298080E+01  0.4886598E+06  0.2623610E+01  0.5501634E-03 -0.2553590E+01
  0.2800000E+01  0.1471114E+06  0.1073791E+01  0.6870861E-02 -0.2949424E+01  0.3492952E+01  0.1210511E+01  0.2937373E-01  0.1028862E+01  0.8801961E+06  0.1087932E+01  0.6224389E-03 -0.1768192E+01
  0.2849999E+01  0.1425408E+06  0.1043401E+01  0.1530754E-01 -0.2624425E+01  0.4665790E+02 -0.1348009E+01  0.2246110E-01  0.1073851E+01  0.8736475E+06  0.1058091E+01  0.1965484E-02 -0.1121037E+01
  0.2900000E+01  0.1365471E+06  0.9439396E+00  0.3723426E-02 -0.9395897E+00  0.9379991E+02 -0.1253085E+01  0.5875502E-01  0.1324824E+01  0.8440772E+06  0.9574698E+00  0.2100177E-02  0.9505470E+00
  0.2949999E+01  0.1302737E+06  0.8270110E+00  0.8501220E-03 -0.1937970E+01  0.1310012E+03 -0.1214671E+01  0.5358676E-01 -0.1747110E+01  0.8101734E+06  0.8375353E+00  0.9296600E-03 -0.4048919E+00
  0.3000000E+01  0.1236848E+06  0.6985831E+00  0.1614424E-02  0.1646481E+01  0.1628485E+03 -0.1180313E+01  0.9282735E-02 -0.1665475E+01  0.7746215E+06  0.7070897E+00  0.3331871E-02  0.1470784E+00
  0.3050000E+01  0.1174549E+06  0.5629407E+00  0.2171484E-02  0.5675377E+00  0.2181702E+03 -0.1151842E+01  0.7049321E-01  0.1638599E+01  0.7405605E+06  0.5707071E+00  0.8366285E-03  0.7531512E+00
  0.3100000E+01  0.1115206E+06  0.4249188E+00  0.3064049E-02  0.1710690E+01  0.2569412E+03 -0.9658349E+00  0.8069751E-02  0.1623107E+01  0.7079089E+06  0.4308688E+00  0.2591065E-03 -0.2800055E+01
  0.3150000E+01  0.1056802E+06  0.2851909E+00  0.4255821E-02 -0.1484640E+01  0.2914470E+03 -0.6884022E+00  0.4046096E-01 -0.9723091E+00  0.6757550E+06  0.2885126E+00  0.1244135E-02  0.2947204E+01
  0.3199999E+01  0.1000349E+06  0.1429396E+00  0.3094564E-02  0.2080768E+01  0.4238813E+03 -0.3225894E+00  0.8675257E-01 -0.5366409E+00  0.6446784E+06  0.1442333E+00  0.1807507E-02 -0.2937575E+01
  0.3250000E+01  0.9453652E+05 -0.2151919E-02  0.1803379E-02  0.1152573E+01  0.8746437E+03  0.6875375E-01  0.7764412E-01  0.1525594E+01  0.6143962E+06 -0.2166960E-02  0.2808281E-02 -0.2173571E-01
  0.3299999E+01  0.8915160E+05 -0.1500780E+00  0.5204143E-02  0.1887701E+00  0.2187167E+04  0.1240796E+01  0.2328316E-01  0.9334289E+00  0.5847283E+06 -0.1505722E+00  0.1660336E-02 -0.1869295E+01
  0.3349999E+01  0.8401029E+05 -0.3009230E+00  0.3931441E-02 -0.2055274E+01  0.7370934E+03  0.2767266E+01  0.1598512E-01 -0.2931773E+01  0.5561336E+06 -0.3007968E+00  0.1615992E-02 -0.1760785E+01
  0.3400000E+01  0.7908059E+05 -0.4523827E+00  0.4949872E-02 -0.4934265E-01  0.2105253E+03 -0.2815938E+01  0.3773713E-01 -0.2826235E+01  0.5282963E+06 -0.4509904E+00  0.1203801E-02 -0.5317240E+00
  0.3450000E+01  0.7409631E+05 -0.6029243E+00  0.1527099E-02  0.3997846E-01  0.1423805E+03 -0.2082009E+01  0.9382520E-02  0.2558529E+01  0.5001693E+06 -0.5993303E+00  0.8631672E-03  0.2356194E+01
  0.3500000E+01  0.6898879E+05 -0.7499604E+00  0.5542113E-02  0.4439457E+00  0.1270805E+03 -0.1782721E+01  0.2294508E-01 -0.3125437E+01  0.4713280E+06 -0.7431929E+00  0.5187988E-03 -0.3141593E+01
  0.3549999E+01  0.6338556E+05 -0.8892915E+00  0.3243283E-02 -0.3656537E+00  0.1370387E+03 -0.1565137E+01  0.1278292E-01 -0.1250887E+01  0.4396224E+06 -0.8768637E+00  0.4536764E-03 -0.1913820E+01
  0.3600001E+01  0.5655786E+05 -0.1003750E+01  0.5412754E-02  0.1506619E+01  0.5907126E+02 -0.1885869E+01  0.3021271E-01  0.8279369E+00  0.4005056E+06 -0.9845058E+00  0.6224389E-03 -0.2944197E+01
  0.3649999E+01  0.4503996E+05 -0.1039407E+01  0.1438298E-02 -0.1645127E+01  0.3597249E+02 -0.1728052E+01  0.7181900E-02  0.2846051E+01  0.3358393E+06 -0.1011108E+01  0.8807904E-03  0.1325818E+01
  0.3700001E+01  0.8229053E+04 -0.9067975E+00  0.7000771E-03 -0.3562197E+00  0.1509314E+02 -0.1605212E+01  0.1549810E-01 -0.1818398E+00  0.1197769E+06 -0.7156801E+00  0.6601962E-03  0.5880026E+00
  0.3750000E+01  0.6675452E+05 -0.2666218E+01  0.1509926E-02  0.1325818E+01  0.1305308E+02 -0.1739724E+01  0.1899500E-01 -0.5124285E-01  0.3865928E+06 -0.2656190E+01  0.7720404E-03  0.3217506E+00
  0.3800000E+01  0.6841088E+05 -0.2361125E+01  0.2158351E-02 -0.2376192E+01  0.4286318E+02 -0.2089199E+01  0.1749021E-01  0.1573141E+01  0.4274412E+06 -0.2346138E+01  0.2320139E-02  0.3115283E+01
  0.3850000E+01  0.6370468E+05 -0.2385293E+01  0.1505602E-02 -0.1879727E+01  0.6229630E+02 -0.2421862E+01  0.9272941E-02 -0.1427143E+01  0.4069572E+06 -0.2372685E+01  0.3712623E-03  0.1735945E+01
  0.3900000E+01  0.5933211E+05 -0.2485436E+01  0.1577865E-02 -0.1651487E+00  0.1065172E+04 -0.2155839E+01  0.3442575E-02 -0.1496417E+01  0.3843249E+06 -0.2478253E+01  0.1364787E-02 -0.2961739E+01
  0.3950000E+01  0.5535368E+05 -0.2626225E+01  0.2050988E-02 -0.1376137E+01  0.1495720E+04 -0.2296056E+01  0.2904416E-01 -0.1417894E+01  0.3629128E+06 -0.2620714E+01  0.7934571E-03  0.2746801E+01
  0.4000001E+01  0.5179762E+05 -0.2779252E+01  0.2361028E-02 -0.1519071E+01  0.2337132E+04 -0.2397292E+01  0.3509307E-01  0.1547804E+01  0.3427642E+06 -0.2775901E+01  0.1145885E-02 -0.2703350E+01
