VARIABLES="w (rad/s)"
"abs(F   1   1)" "angle(F   1   1)"
"abs(F   1   2)" "angle(F   1   2)"
"abs(F   1   3)" "angle(F   1   3)"
"abs(F   1   4)" "angle(F   1   4)"
"abs(F   1   5)" "angle(F   1   5)"
"abs(F   1   6)" "angle(F   1   6)"
Zone t="FKforce - beta =   0.000",I=    40,F=POINT
  0.5000000E+00  0.1701467E+06  0.3141592E+01  0.3588875E-01 -0.1568671E+01  0.5862284E+06 -0.1570796E+01  0.1375497E+01 -0.1567246E+01  0.5510441E+06  0.3141592E+01  0.1230203E-02 -0.4081491E+00
  0.5384616E+00  0.1933992E+06  0.3141593E+01  0.5576704E-01 -0.1510016E+01  0.5624604E+06 -0.1570796E+01  0.5932734E+00 -0.1577072E+01  0.6307067E+06 -0.3141593E+01  0.7580409E-03  0.6998929E+00
  0.5769231E+00  0.2172762E+06  0.3141592E+01  0.5566634E-01 -0.1579842E+01  0.5379442E+06 -0.1570796E+01  0.3267254E+00  0.1590786E+01  0.7138622E+06 -0.3141593E+01  0.4150840E-02 -0.2512796E+01
  0.6153846E+00  0.2415871E+06  0.3141592E+01  0.1955642E-01 -0.1520059E+01  0.5128525E+06 -0.1570796E+01  0.6308600E+00 -0.1572248E+01  0.8000617E+06  0.3141593E+01  0.1397492E-02  0.5516550E+00
  0.6538461E+00  0.2661412E+06  0.3141593E+01  0.2417426E-01 -0.1551859E+01  0.4873558E+06 -0.1570796E+01  0.1493657E+01 -0.1573248E+01  0.8888442E+06 -0.3141592E+01  0.3879935E-02 -0.1234122E+01
  0.6923077E+00  0.2907500E+06 -0.3141593E+01  0.3919562E-01  0.1594546E+01  0.4616221E+06 -0.1570796E+01  0.1586941E+01  0.1564950E+01  0.9797361E+06 -0.3141593E+01  0.1786778E-02 -0.3004526E+01
  0.7307692E+00  0.3152289E+06 -0.3141593E+01  0.9179773E-01 -0.1566475E+01  0.4358139E+06 -0.1570796E+01  0.2622380E+00  0.1586158E+01  0.1072260E+07 -0.3141592E+01  0.6352350E-02 -0.3103150E+01
  0.7692307E+00  0.3393989E+06  0.3141593E+01  0.1911677E-02 -0.1279340E+01  0.4100874E+06 -0.1570796E+01  0.5982056E+00 -0.1585081E+01  0.1165932E+07 -0.3141593E+01  0.5823663E-02  0.2565217E+01
  0.8076923E+00  0.3630888E+06 -0.3141592E+01  0.7875392E-01  0.1525831E+01  0.3845902E+06 -0.1570796E+01  0.1231201E+01 -0.1570697E+01  0.1260268E+07 -0.3141593E+01  0.1586914E-02  0.3141593E+01
  0.8461539E+00  0.3861342E+06 -0.3141593E+01  0.1525879E-02 -0.1287002E+01  0.3594605E+06 -0.1570796E+01  0.2903569E+01  0.1572520E+01  0.1354778E+07 -0.3141593E+01  0.3183204E-02 -0.2574863E+01
  0.8846154E+00  0.4083819E+06 -0.3141593E+01  0.1148775E-01  0.1867342E+01  0.3348263E+06 -0.1570796E+01  0.1367188E-01  0.1570796E+01  0.1448981E+07 -0.3141593E+01  0.9533996E-03  0.8760580E+00
  0.9230769E+00  0.4296885E+06  0.3141593E+01  0.4224572E-01 -0.1475297E+01  0.3108043E+06 -0.1570796E+01  0.6547855E+00 -0.1571728E+01  0.1542388E+07 -0.3141593E+01  0.5033088E-03  0.1815775E+01
  0.9615384E+00  0.4499224E+06 -0.3141593E+01  0.2358961E-01  0.1520321E+01  0.2874985E+06 -0.1570796E+01  0.4221687E+00  0.1586122E+01  0.1634525E+07  0.3141593E+01  0.1151609E-02  0.2129396E+01
  0.1000000E+01  0.4689634E+06  0.3141592E+01  0.1534752E-01  0.1463213E+01  0.2650007E+06 -0.1570796E+01  0.1958058E+01 -0.1577966E+01  0.1724912E+07 -0.3141593E+01  0.2200654E-02  0.2553590E+01
  0.1038461E+01  0.4867052E+06  0.3141593E+01  0.6631610E-01 -0.1502636E+01  0.2433893E+06 -0.1570796E+01  0.9441277E-01  0.1509991E+01  0.1813082E+07  0.3141593E+01  0.4057805E-02  0.2334921E+01
  0.1076923E+01  0.5030526E+06  0.3141593E+01  0.1081838E-01 -0.1452040E+01  0.2227299E+06 -0.1570796E+01  0.2340211E+00  0.1513909E+01  0.1898577E+07  0.3141593E+01  0.8060339E-02  0.3111299E+01
  0.1115385E+01  0.5179246E+06  0.3141593E+01  0.2076093E-02 -0.1541393E+01  0.2030753E+06 -0.1570796E+01  0.4650943E-01 -0.1565547E+01  0.1980942E+07  0.3141593E+01  0.1586914E-02  0.0000000E+00
  0.1153846E+01  0.5312525E+06 -0.3141593E+01  0.4335619E-01 -0.1693580E+01  0.1844652E+06 -0.1570796E+01  0.9365731E+00 -0.1608342E+01  0.2059733E+07 -0.3141593E+01  0.8182354E-02  0.3111751E+01
  0.1192308E+01  0.5429788E+06  0.3141593E+01  0.3676328E-01  0.1637254E+01  0.1669268E+06 -0.1570796E+01  0.2560832E+00 -0.1622778E+01  0.2134520E+07  0.3141593E+01  0.6845740E-02 -0.5352027E-01
  0.1230769E+01  0.5530606E+06  0.3141593E+01  0.1981688E-01  0.2192120E+01  0.1504763E+06 -0.1570796E+01  0.7500048E+00 -0.1552403E+01  0.2204881E+07  0.3141593E+01  0.3831141E-02  0.2749253E+01
  0.1269231E+01  0.5614647E+06 -0.3141593E+01  0.4006520E-01  0.1673042E+01  0.1351180E+06 -0.1570796E+01  0.4063399E+00 -0.1591827E+01  0.2270414E+07 -0.3141593E+01  0.9132459E-02 -0.2994025E+01
  0.1307692E+01  0.5681696E+06  0.3141593E+01  0.3821390E-01  0.1588366E+01  0.1208465E+06 -0.1570796E+01  0.9278598E-01 -0.1645197E+01  0.2330723E+07  0.3141593E+01  0.3204200E-02  0.3097029E+00
  0.1346154E+01  0.5731648E+06 -0.3141593E+01  0.2261515E-01 -0.1432716E+01  0.1076469E+06 -0.1570796E+01  0.4705953E-01  0.1563014E+01  0.2385432E+07 -0.3141593E+01  0.5250443E-02 -0.2325162E-01
  0.1384615E+01  0.5764484E+06  0.3141593E+01  0.8315130E-02  0.1629552E+01  0.9549575E+05 -0.1570796E+01  0.8758800E-01 -0.1733883E+01  0.2434189E+07  0.3141593E+01  0.1330790E-01 -0.1834656E-01
  0.1423077E+01  0.5780285E+06  0.3141593E+01  0.1530425E-01  0.1718897E+01  0.8436241E+05 -0.1570796E+01  0.1293951E+00 -0.1573627E+01  0.2476650E+07 -0.3141593E+01  0.1091830E-02 -0.2034444E+01
  0.1461538E+01  0.5779205E+06 -0.3141593E+01  0.1324969E-01  0.1598439E+01  0.7420981E+05 -0.1570796E+01  0.3857739E+00 -0.1616220E+01  0.2512501E+07 -0.3141593E+01  0.5219130E-02 -0.2953371E+01
  0.1500000E+01  0.5761475E+06  0.3141593E+01  0.8599895E-02  0.9926359E+00  0.6499564E+05 -0.1570796E+01  0.9219605E-01  0.1563514E+01  0.2541449E+07 -0.3141593E+01  0.6840296E-02 -0.3105894E+01
  0.1538461E+01  0.5727398E+06 -0.3141593E+01  0.4143204E-02  0.2356194E+01  0.5667330E+05 -0.1570796E+01  0.1003445E+00 -0.1802793E+01  0.2563226E+07 -0.3141593E+01  0.4152185E-02  0.3112189E+01
  0.1576923E+01  0.5677335E+06  0.3141593E+01  0.5883534E-01 -0.1515787E+01  0.4919277E+05 -0.1570796E+01  0.1136263E+01 -0.1569077E+01  0.2577594E+07 -0.3141593E+01  0.2198113E-02 -0.2777064E-01
  0.1615385E+01  0.5611702E+06 -0.3141593E+01  0.2096993E-01  0.1550421E+01  0.4250186E+05 -0.1570796E+01  0.6705236E-01 -0.1026357E+01  0.2584348E+07  0.3141593E+01  0.6389772E-02  0.3026716E+01
  0.1653846E+01  0.5530962E+06  0.3141593E+01  0.1207421E-01 -0.2112516E+01  0.3654684E+05 -0.1570796E+01  0.6807489E+00 -0.1556495E+01  0.2583300E+07  0.3141593E+01  0.1293312E-02  0.2804918E+01
  0.1692308E+01  0.5435616E+06 -0.3141593E+01  0.3541913E-02  0.3749065E+00  0.3127334E+05 -0.1570796E+01  0.3334219E+00 -0.1483275E+01  0.2574318E+07 -0.3141593E+01  0.1172447E-02 -0.2245537E+01
  0.1730769E+01  0.5326221E+06 -0.3141593E+01  0.4626610E-02  0.2111216E+01  0.2662717E+05 -0.1570796E+01  0.4294951E-01  0.1146800E+01  0.2557295E+07  0.3141593E+01  0.6787332E-02 -0.2900976E+01
  0.1769231E+01  0.5203351E+06 -0.3141593E+01  0.7612195E-02  0.1401611E+01  0.2255487E+05 -0.1570796E+01  0.3320509E+00 -0.1536509E+01  0.2532175E+07  0.3141593E+01  0.4904941E-02 -0.3046567E+01
  0.1807692E+01  0.5067632E+06  0.3141593E+01  0.1512006E-01 -0.1938278E+01  0.1900435E+05 -0.1570796E+01  0.1113389E+00  0.1599855E+01  0.2498924E+07 -0.3141593E+01  0.5135580E-02  0.3083622E+01
  0.1846154E+01  0.4919707E+06  0.3141593E+01  0.9091630E-02 -0.2518904E+01  0.1592537E+05 -0.1570796E+01  0.3443224E-01  0.1708610E+01  0.2457572E+07  0.3141593E+01  0.6142018E-02  0.3029564E+01
  0.1884615E+01  0.4760256E+06  0.3141593E+01  0.2185461E-01  0.1410928E+01  0.1326995E+05 -0.1570796E+01  0.2346282E+00  0.1567284E+01  0.2408187E+07 -0.3141593E+01  0.1777371E-02 -0.2863293E+01
  0.1923077E+01  0.4589992E+06 -0.3141593E+01  0.1399124E-01 -0.1969530E+01  0.1099263E+05 -0.1570796E+01  0.2084992E+00 -0.1601831E+01  0.2350886E+07  0.3141593E+01  0.6350297E-02 -0.3112755E+01
  0.1961538E+01  0.4409658E+06  0.3141593E+01  0.1576610E-02 -0.2397267E+01  0.9050797E+04 -0.1570796E+01  0.2398046E+00 -0.1567488E+01  0.2285840E+07 -0.3141593E+01  0.1065933E-02  0.4124104E+00
  0.2000000E+01  0.4220017E+06 -0.3141593E+01  0.2356463E-01  0.1550074E+01  0.7404783E+04 -0.1570796E+01  0.1578450E+00 -0.1627765E+01  0.2213268E+07 -0.3141593E+01  0.1545287E-02 -0.1412141E+01
