VARIABLES="w (rad/s)"
"abs(F   1   1)" "angle(F   1   1)"
"abs(F   1   2)" "angle(F   1   2)"
"abs(F   1   3)" "angle(F   1   3)"
"abs(F   1   4)" "angle(F   1   4)"
"abs(F   1   5)" "angle(F   1   5)"
"abs(F   1   6)" "angle(F   1   6)"
Zone t="FKforce - beta =   0.000",I=    80,F=POINT
  0.5000000E-01  0.1928897E+04  0.3141590E+01  0.6469782E-02 -0.1566669E+01  0.7559354E+06 -0.1570796E+01  0.8911133E+00 -0.1570760E+01  0.5984550E+04 -0.3141553E+01  0.2441743E-03 -0.1554196E+01
  0.9999999E-01  0.7686153E+04 -0.3141592E+01  0.7800293E-01  0.1570735E+01  0.7501759E+06 -0.1570796E+01  0.9472656E+00 -0.1570861E+01  0.2387786E+05 -0.3141585E+01  0.2531031E-03  0.1303883E+01
  0.1500000E+00  0.1718411E+05 -0.3141585E+01  0.1367192E-01  0.1568355E+01  0.7406682E+06 -0.1570796E+01  0.9985353E+00  0.1570292E+01  0.5349971E+05 -0.3141592E+01  0.3189019E-02  0.1668442E+01
  0.2000000E+00  0.3027857E+05 -0.3141589E+01  0.7446645E-01 -0.1580581E+01  0.7275478E+06 -0.1570796E+01  0.4345729E+00  0.1567355E+01  0.9455316E+05  0.3141592E+01  0.4401308E-03  0.2553590E+01
  0.2500000E+00  0.4677207E+05  0.3141592E+01  0.8264181E-01  0.1568534E+01  0.7109995E+06 -0.1570796E+01  0.1324220E+01 -0.1571880E+01  0.1466287E+06  0.3141592E+01  0.5565276E-03 -0.2071237E+01
  0.3000000E+00  0.6641741E+05 -0.3141593E+01  0.4553288E-01 -0.1565434E+01  0.6912545E+06 -0.1570796E+01  0.1148438E+01 -0.1570903E+01  0.2092110E+06 -0.3141592E+01  0.1976823E-02  0.1415800E+01
  0.3500000E+00  0.8892312E+05  0.3141593E+01  0.9265338E-01 -0.1577384E+01  0.6685844E+06 -0.1570796E+01  0.1012207E+01  0.1570133E+01  0.2816864E+06 -0.3141593E+01  0.2443742E-02  0.1527074E+01
  0.4000000E+00  0.1139589E+06 -0.3141592E+01  0.1621698E-01  0.1683947E+01  0.6432964E+06 -0.1570796E+01  0.1474125E+01  0.1573198E+01  0.3633509E+06  0.3141592E+01  0.1837402E-02  0.2581233E+01
  0.4500000E+00  0.1411627E+06  0.3141593E+01  0.1525998E-01 -0.1558297E+01  0.6157254E+06 -0.1570796E+01  0.1072267E+01 -0.1569146E+01  0.4534212E+06  0.3141593E+01  0.1517617E-02 -0.1306308E+01
  0.5000000E+00  0.1701467E+06  0.3141592E+01  0.3589614E-01 -0.1550391E+01  0.5862284E+06 -0.1570796E+01  0.1250506E+01 -0.1576068E+01  0.5510441E+06  0.3141592E+01  0.1230203E-02 -0.4081491E+00
  0.5500000E+00  0.2005054E+06 -0.3141592E+01  0.9252936E-01  0.1571951E+01  0.5551762E+06 -0.1570796E+01  0.2729497E+00  0.1572585E+01  0.6553069E+06  0.3141593E+01  0.1517617E-02  0.1306308E+01
  0.6000000E+00  0.2318229E+06  0.3141592E+01  0.9436038E-01 -0.1569988E+01  0.5229473E+06 -0.1570796E+01  0.1275428E+01 -0.1578405E+01  0.7652474E+06 -0.3141593E+01  0.2065298E-02 -0.1239700E+01
  0.6500000E+00  0.2636802E+06  0.3141593E+01  0.9818993E-02 -0.1466489E+01  0.4899189E+06 -0.1570796E+01  0.3520767E+00  0.1582932E+01  0.8798632E+06 -0.3141593E+01  0.3513102E-02  0.3002153E+01
  0.7000000E+00  0.2956618E+06 -0.3141593E+01  0.8557652E-01  0.1559741E+01  0.4564613E+06 -0.1570796E+01  0.1758317E+01 -0.1566492E+01  0.9981256E+06 -0.3141593E+01  0.5039375E-02 -0.2946572E+01
  0.7499999E+00  0.3273634E+06 -0.3141593E+01  0.3778462E-01 -0.1489131E+01  0.4229311E+06 -0.1570796E+01  0.1616213E+00  0.1572307E+01  0.1118982E+07  0.3141593E+01  0.4319720E-02 -0.2734846E+01
  0.8000000E+00  0.3583971E+06  0.3141593E+01  0.6919621E-02  0.2614788E+01  0.3896646E+06 -0.1570796E+01  0.8525401E+00 -0.1569221E+01  0.1241370E+07 -0.3141593E+01  0.4586986E-02 -0.2701750E+01
  0.8500000E+00  0.3883975E+06 -0.3141593E+01  0.1201390E+00  0.1589849E+01  0.3569727E+06 -0.1570796E+01  0.1731446E+01  0.1571642E+01  0.1364222E+07  0.3141593E+01  0.1403809E-02  0.0000000E+00
  0.9000000E+00  0.4170256E+06  0.3141593E+01  0.4743704E-01 -0.1593958E+01  0.3251380E+06 -0.1570796E+01  0.6065027E-01  0.1512395E+01  0.1486467E+07 -0.3141593E+01  0.2028903E-02 -0.3020969E+01
  0.9499999E+00  0.4439725E+06  0.3141593E+01  0.3534095E-01  0.1561297E+01  0.2944093E+06 -0.1570796E+01  0.2250977E+00 -0.1570254E+01  0.1607047E+07 -0.3141593E+01  0.1244878E-02  0.1768192E+01
  0.1000000E+01  0.4689634E+06  0.3141592E+01  0.1534752E-01  0.1463213E+01  0.2650007E+06 -0.1570796E+01  0.1958058E+01 -0.1577966E+01  0.1724912E+07 -0.3141593E+01  0.2200654E-02  0.2553590E+01
  0.1050000E+01  0.4917596E+06  0.3141593E+01  0.1347048E+00  0.1568984E+01  0.2370889E+06 -0.1570796E+01  0.6086296E+00 -0.1531275E+01  0.1839033E+07  0.3141593E+01  0.1320392E-02 -0.2553590E+01
  0.1100000E+01  0.5121573E+06 -0.3141593E+01  0.2906075E-01 -0.1476143E+01  0.2108138E+06 -0.1570796E+01  0.5938764E+00  0.1641152E+01  0.1948400E+07 -0.3141593E+01  0.4481826E-02 -0.5123895E+00
  0.1150000E+01  0.5299906E+06  0.3141593E+01  0.6978590E-02 -0.2263295E+01  0.1862782E+06 -0.1570796E+01  0.1629655E+00 -0.1609757E+01  0.2052027E+07 -0.3141593E+01  0.1098633E-02  0.0000000E+00
  0.1200000E+01  0.5451276E+06  0.3141593E+01  0.3113828E-01  0.1478539E+01  0.1635494E+06 -0.1570796E+01  0.5830060E+00  0.1591108E+01  0.2148961E+07 -0.3141593E+01  0.1330622E-01 -0.3132419E+01
  0.1250000E+01  0.5574736E+06 -0.3141593E+01  0.1747632E-01 -0.1377510E+01  0.1426608E+06 -0.1570796E+01  0.3446087E+00  0.1565837E+01  0.2238280E+07  0.3141593E+01  0.3573555E-02  0.1370662E+00
  0.1300000E+01  0.5669652E+06  0.3141593E+01  0.4276383E-02 -0.1527965E+01  0.1236145E+06 -0.1570796E+01  0.8331559E+00  0.1562884E+01  0.2319097E+07  0.3141593E+01  0.6619994E-02 -0.3049263E+01
  0.1350000E+01  0.5735699E+06 -0.3141593E+01  0.2603885E-01  0.1516858E+01  0.1063850E+06 -0.1570796E+01  0.9867896E+00 -0.1594550E+01  0.2390584E+07  0.3141593E+01  0.2100177E-02  0.9505469E+00
  0.1400000E+01  0.5772844E+06 -0.3141593E+01  0.3474182E-02 -0.1892547E+01  0.9092225E+05 -0.1570796E+01  0.1015022E+01  0.1574705E+01  0.2451947E+07 -0.3141593E+01  0.4799708E-02 -0.3014083E+01
  0.1450000E+01  0.5781287E+06 -0.3141593E+01  0.3973956E-01  0.1587692E+01  0.7715509E+05 -0.1570796E+01  0.6215144E-01 -0.1681996E+01  0.2502458E+07 -0.3141593E+01  0.9559750E-02 -0.3052089E+01
  0.1500000E+01  0.5761476E+06  0.3141593E+01  0.3876573E-02 -0.5836358E+00  0.6499565E+05 -0.1570796E+01  0.3777865E-01  0.1609580E+01  0.2541449E+07 -0.3141593E+01  0.8810230E-02  0.3072259E+01
  0.1550000E+01  0.5714040E+06 -0.3141593E+01  0.6378177E-01 -0.1571753E+01  0.5434312E+05 -0.1570796E+01  0.6387376E+00 -0.1566974E+01  0.2568326E+07  0.3141593E+01  0.1320392E-02  0.9827937E+00
  0.1600000E+01  0.5639796E+06 -0.3141593E+01  0.3211169E-02 -0.1418147E+01  0.4508689E+05 -0.1570796E+01  0.5126397E+00 -0.1611884E+01  0.2582571E+07 -0.3141593E+01  0.1938767E-02  0.2649783E+01
  0.1650000E+01  0.5539698E+06  0.3141593E+01  0.3444568E-02  0.1446441E+01  0.3711076E+05 -0.1570796E+01  0.7614400E+00 -0.1579133E+01  0.2583760E+07  0.3141593E+01  0.2316121E-02 -0.2819842E+01
  0.1700000E+01  0.5414842E+06  0.3141593E+01  0.2548218E-02 -0.1570796E+01  0.3029563E+05 -0.1570796E+01  0.9573936E-01  0.1366977E+01  0.2571561E+07 -0.3141593E+01  0.9475204E-03 -0.1831399E+01
  0.1750000E+01  0.5266432E+06 -0.3141593E+01  0.8145708E-02 -0.8298567E-01  0.2452258E+05 -0.1570796E+01  0.8498416E-01  0.2236087E+01  0.2545751E+07 -0.3141593E+01  0.6595258E-02 -0.3109197E+01
  0.1800000E+01  0.5095774E+06  0.3141593E+01  0.8958917E-02  0.1065910E+01  0.1967516E+05 -0.1570796E+01  0.1740713E-01 -0.2051988E+01  0.2506224E+07 -0.3141593E+01  0.4182219E-02 -0.3018143E+01
  0.1850000E+01  0.4904268E+06 -0.3141593E+01  0.8587761E-02 -0.9221424E+00  0.1564156E+05 -0.1570796E+01  0.8505635E-01  0.1546396E+01  0.2452997E+07 -0.3141593E+01  0.5615753E-02  0.3128006E+01
  0.1900000E+01  0.4693411E+06 -0.3141593E+01  0.1833216E-01  0.1674192E+01  0.1231610E+05 -0.1570796E+01  0.1539166E+00 -0.1509789E+01  0.2386210E+07 -0.3141593E+01  0.7577214E-02  0.4834939E-01
  0.1950000E+01  0.4464771E+06  0.3141593E+01  0.4969026E-02  0.2056418E+01  0.9600543E+04 -0.1570796E+01  0.3800997E+00 -0.1559074E+01  0.2306158E+07 -0.3141593E+01  0.7324219E-03 -0.1570796E+01
  0.2000000E+01  0.4220018E+06 -0.3141593E+01  0.4389548E-02 -0.7214461E+00  0.7404788E+04 -0.1570796E+01  0.1614430E+00 -0.1499566E+01  0.2213268E+07 -0.3141593E+01  0.2932230E-02 -0.4164258E-01
  0.2050000E+01  0.3960902E+06  0.3141593E+01  0.7754348E-02  0.1131792E+01  0.5647400E+04 -0.1570796E+01  0.4365814E-01 -0.1075062E+01  0.2108123E+07  0.3141593E+01  0.3923378E-02 -0.3048116E+01
  0.2100000E+01  0.3689267E+06 -0.3141593E+01  0.9936553E-02 -0.2216754E+01  0.4255777E+04 -0.1570796E+01  0.1177254E+00 -0.1546621E+01  0.1991459E+07  0.3141593E+01  0.7495157E-02  0.1142543E+00
  0.2150000E+01  0.3407051E+06 -0.3141593E+01  0.7907527E-02 -0.2307054E+01  0.3165996E+04 -0.1570796E+01  0.1200052E-01 -0.2289387E+01  0.1864160E+07 -0.3141593E+01  0.1244878E-02 -0.2944197E+01
  0.2200000E+01  0.3116295E+06 -0.3141593E+01  0.4175447E-02 -0.2662520E+00  0.2322542E+04 -0.1570796E+01  0.2906516E-01  0.1259048E+01  0.1727267E+07  0.3141593E+01  0.3061508E-02 -0.7982998E-01
  0.2250000E+01  0.2819134E+06 -0.3141593E+01  0.2083258E-02  0.1482789E+01  0.1677784E+04 -0.1570796E+01  0.2813570E-01  0.9662849E+00  0.1581965E+07 -0.3141593E+01  0.1244878E-02 -0.2944197E+01
  0.2300000E+01  0.2517801E+06 -0.3141593E+01  0.9740463E-02 -0.1020168E+01  0.1191408E+04 -0.1570796E+01  0.2546339E-01  0.1720416E+01  0.1429591E+07 -0.3141593E+01  0.1105394E-02  0.1460139E+01
  0.2350000E+01  0.2214620E+06 -0.3141593E+01  0.1833342E-02  0.1620755E+01  0.8297009E+03 -0.1570796E+01  0.1216305E-01 -0.2915746E+01  0.1271605E+07  0.3141593E+01  0.1166075E-02  0.3036716E+01
  0.2400000E+01  0.1911999E+06 -0.3141593E+01  0.1152337E-01 -0.1432645E+01  0.5648539E+03 -0.1570796E+01  0.6070405E-01 -0.1533272E+01  0.1109592E+07 -0.3141593E+01  0.1757346E-02 -0.3547057E+00
  0.2450000E+01  0.1612409E+06 -0.3141593E+01  0.6295873E-02 -0.8574382E+00  0.3742274E+03 -0.1570796E+01  0.2706303E-01 -0.1803006E+01  0.9452459E+06  0.3141593E+01  0.1057600E-02  0.2376600E+01
  0.2500000E+01  0.1318376E+06 -0.3141593E+01  0.7795808E-03 -0.1221189E+01  0.2396407E+03 -0.1570797E+01  0.1054651E-01  0.2937813E+01  0.7803409E+06  0.3141593E+01  0.1525879E-03  0.3141593E+01
  0.2550000E+01  0.1032451E+06 -0.3141593E+01  0.6064942E-02  0.1930745E+01  0.1466991E+03 -0.1570796E+01  0.2329674E-01 -0.1576517E+01  0.6167210E+06 -0.3141593E+01  0.1824574E-02 -0.3007383E+01
  0.2600000E+01  0.7571819E+05  0.3141593E+01  0.3662109E-02 -0.6435011E+00  0.8417189E+02 -0.1570796E+01  0.4555040E-01  0.1333536E+01  0.4562654E+06 -0.3141592E+01  0.1065933E-02 -0.2310907E+00
  0.2650000E+01  0.4950800E+05  0.3141592E+01  0.8649795E-02 -0.1341221E+01  0.4343376E+02 -0.1570796E+01  0.3562351E-02  0.1957191E+01  0.3008685E+06 -0.3141593E+01  0.4443426E-03 -0.2863293E+01
  0.2700000E+01  0.2485814E+05  0.3141592E+01  0.4190587E-02 -0.1350548E+01  0.1796779E+02 -0.1570798E+01  0.8378480E-01  0.1634595E+01  0.1524008E+06 -0.3141592E+01  0.2729575E-03 -0.4636476E+00
  0.2750000E+01  0.2000633E+04 -0.3141593E+01  0.3168101E-02 -0.9427083E+00  0.2937611E+01 -0.1570797E+01  0.2112430E-01 -0.1395960E+01  0.1267901E+05 -0.3141593E+01  0.3860202E-03  0.2819842E+01
  0.2800000E+01  0.1884874E+05 -0.3885786E-06  0.3782333E-02  0.1317990E+01  0.5176244E+01  0.1570796E+01  0.3287315E-01  0.1719956E+01  0.1165692E+06  0.3853911E-06  0.1726335E-03 -0.7853982E+00
  0.2850000E+01  0.3749522E+05 -0.5599672E-06  0.2777770E-02 -0.1592771E+01  0.8879705E+01  0.1570796E+01  0.2676083E-01  0.2065062E+01  0.2337440E+06  0.5847857E-07  0.1202253E-02 -0.4182243E+00
  0.2900000E+01  0.5376970E+05  0.3132936E-06  0.2575076E-02  0.1022247E+01  0.9912883E+01  0.1570797E+01  0.1435838E-01  0.1259395E+01  0.3374078E+06 -0.2141733E-06  0.1588087E-02  0.3844259E-01
  0.2950000E+01  0.6753366E+05  0.2349812E-07  0.1404140E-02  0.2402316E+01  0.9448991E+01  0.1570796E+01  0.5218858E-01 -0.1533281E+01  0.4263236E+06 -0.9168234E-08  0.6573687E-03 -0.2761086E+01
  0.3000000E+01  0.7868367E+05 -0.3102812E-07  0.3571991E-03  0.1222025E+01  0.8250672E+01  0.1570796E+01  0.8612340E-02 -0.2243803E+01  0.4994925E+06 -0.1036184E-06  0.3910539E-02  0.4684071E-01
  0.3050000E+01  0.8715560E+05  0.1680722E-07  0.2002625E-02  0.3337982E+00  0.6790674E+01  0.1570797E+01  0.7356261E-01  0.1524309E+01  0.5561807E+06  0.1185205E-06  0.6466559E-03  0.3366748E+00
  0.3100000E+01  0.9292826E+05 -0.1902664E-07  0.3685594E-02  0.1471269E+01  0.5342794E+01  0.1570796E+01  0.1101541E-01  0.1748954E+01  0.5959541E+06  0.4503978E-07  0.5095665E-03  0.1071151E+01
  0.3150000E+01  0.9602628E+05  0.3813653E-08  0.1181571E-02 -0.1415202E+01  0.4049086E+01  0.1570796E+01  0.3052452E-01 -0.1634818E+01  0.6186980E+06  0.3155530E-08  0.1119209E-02  0.2949545E+01
  0.3200000E+01  0.9652186E+05 -0.3794073E-07  0.1153326E-02 -0.2689779E+01  0.2968110E+01  0.1570796E+01  0.1359284E-01 -0.1203314E+01  0.6246371E+06  0.1564469E-08  0.1968325E-02 -0.3017238E+01
  0.3250000E+01  0.9453641E+05  0.2324253E-07  0.2392858E-02  0.1468590E+01  0.2108634E+01  0.1570796E+01  0.1921335E-01  0.1775511E+01  0.6143426E+06  0.6676537E-07  0.2204882E-02  0.8314123E-01
  0.3300000E+01  0.9023925E+05 -0.1352741E-07  0.2007676E-02  0.1911775E+01  0.1452401E+01  0.1570796E+01  0.3073674E-01  0.1570791E+01  0.5887352E+06 -0.9952125E-08  0.5033088E-03 -0.2896614E+01
  0.3350000E+01  0.8384668E+05 -0.5823501E-07  0.1337561E-02 -0.2667741E+01  0.9688724E+00  0.1570796E+01  0.2305313E-02  0.1247483E+01  0.5490779E+06 -0.3912756E-07  0.2441406E-03  0.3141593E+01
  0.3400000E+01  0.7561883E+05 -0.9685708E-08  0.1795098E-02 -0.1259798E+01  0.6242396E+00  0.1570796E+01  0.7517789E-02 -0.1473200E+01  0.4969549E+06  0.5502292E-07  0.1166075E-02 -0.1048769E+00
  0.3450000E+01  0.6585487E+05  0.8155956E-07  0.7381217E-03  0.2622447E+01  0.3864978E+00  0.1570796E+01  0.5097472E-02 -0.1254207E+01  0.4342448E+06  0.8995880E-08  0.5179005E-03 -0.2356194E+01
  0.3500000E+01  0.5488709E+05  0.6672078E-07  0.1474981E-02  0.4266275E+00  0.2279426E+00  0.1570796E+01  0.6752559E-02  0.6511077E+00  0.3630801E+06  0.8606946E-07  0.2136230E-03  0.3141593E+01
  0.3550000E+01  0.4307395E+05  0.1870421E-06  0.1220703E-02 -0.1570796E+01  0.1260148E+00  0.1570796E+01  0.3297289E-02 -0.1392226E+00  0.2858002E+06  0.9567454E-07  0.3356934E-03  0.0000000E+00
  0.3600000E+01  0.3079039E+05  0.3885268E-06  0.1831090E-02  0.1564546E+01  0.6320303E-01  0.1570796E+01  0.2065299E-01  0.1532370E+01  0.2048862E+06 -0.1334582E-06  0.1220703E-03  0.3141593E+01
  0.3650000E+01  0.1841890E+05 -0.9278430E-07  0.1053630E-02 -0.1745468E+01  0.2646462E-01  0.1570796E+01  0.6239782E-02 -0.7029110E+00  0.1228992E+06  0.3178443E-07  0.1726335E-03  0.7853982E+00
  0.3700000E+01  0.6338459E+04 -0.3851735E-07  0.1592845E-02 -0.1657120E+01  0.6442117E-02  0.1570794E+01  0.2572473E-02 -0.8367096E-01  0.4240337E+05 -0.1105454E-05  0.6103516E-03  0.6435011E+00
  0.3750000E+01  0.5086395E+04 -0.3141591E+01  0.1526184E-02  0.1590794E+01  0.3335963E-02 -0.1570795E+01  0.2415033E-02 -0.2222518E+01  0.3411101E+05  0.3141592E+01  0.4882812E-03  0.0000000E+00
  0.3800000E+01  0.1551707E+05 -0.3141592E+01  0.1078528E-02 -0.1132460E+01  0.7179193E-02 -0.1570795E+01  0.1477557E-01  0.1371195E+01  0.1043082E+06 -0.3141592E+01  0.1840187E-02  0.3041924E+01
  0.3850000E+01  0.2465241E+05 -0.3141593E+01  0.1946677E-02  0.1728213E+01  0.7841429E-02 -0.1570796E+01  0.1434666E-01 -0.1485607E+01  0.1660891E+06 -0.3141593E+01  0.1364788E-03 -0.4636476E+00
  0.3900000E+01  0.3223829E+05 -0.3141593E+01  0.7025674E-03 -0.9707461E+00  0.6999420E-02 -0.1570796E+01  0.1438198E-01  0.1485817E+01  0.2176610E+06  0.3141593E+01  0.1342773E-02  0.3141593E+01
  0.3950000E+01  0.3807781E+05  0.3141593E+01  0.2030064E-02 -0.1480477E+01  0.5613719E-02 -0.1570796E+01  0.2227935E-01 -0.1669580E+01  0.2576100E+06 -0.3141593E+01  0.6111140E-03  0.3091634E+01
  0.4000000E+01  0.4203819E+05 -0.3141593E+01  0.1648570E-02 -0.1950054E+01  0.4189183E-02 -0.1570796E+01  0.3141501E-01  0.1570796E+01  0.2849542E+06 -0.3141593E+01  0.1098633E-02  0.3140725E+01
