VARIABLES="w (rad/s)"
"abs(F   1   1)" "angle(F   1   1)"
"abs(F   1   2)" "angle(F   1   2)"
"abs(F   1   3)" "angle(F   1   3)"
"abs(F   1   4)" "angle(F   1   4)"
"abs(F   1   5)" "angle(F   1   5)"
"abs(F   1   6)" "angle(F   1   6)"
Zone t="FKforce - beta =   0.000",I=    41,F=POINT
  0.1000000E+00  0.7686155E+04 -0.3141592E+01  0.7800296E-01  0.1571713E+01  0.7501759E+06 -0.1570796E+01  0.7421882E-01  0.1569460E+01  0.2392140E+05 -0.3141589E+01  0.2445594E-03  0.1629323E+01
  0.1475000E+00  0.1662238E+05  0.3141585E+01  0.3125000E-01  0.1571193E+01  0.7412304E+06 -0.1570796E+01  0.5932618E+00 -0.1571414E+01  0.5183780E+05  0.3141588E+01  0.1224726E-02  0.1489724E+01
  0.1950000E+00  0.2881252E+05  0.3141589E+01  0.3955307E-01  0.1581550E+01  0.7290170E+06 -0.1570796E+01  0.1007812E+01  0.1570812E+01  0.9010507E+05 -0.3141589E+01  0.1027790E-02  0.1253741E+01
  0.2425000E+00  0.4409056E+05 -0.3141592E+01  0.8545154E-02 -0.1563430E+01  0.7136907E+06 -0.1570796E+01  0.1757843E+00  0.1576699E+01  0.1383775E+06 -0.3141593E+01  0.7849383E-03 -0.1202925E+01
  0.2900000E+00  0.6224960E+05 -0.3141592E+01  0.3808932E-01 -0.1584117E+01  0.6954454E+06 -0.1570796E+01  0.7275457E+00  0.1575075E+01  0.1962218E+06  0.3141592E+01  0.1098739E-02  0.2046866E+01
  0.3375000E+00  0.8304599E+05  0.3141592E+01  0.5372868E-01  0.1545092E+01  0.6745076E+06 -0.1570796E+01  0.3676760E+00 -0.1569717E+01  0.2631230E+06 -0.3141592E+01  0.7330574E-03  0.1612439E+01
  0.3850000E+00  0.1062036E+06 -0.3141592E+01  0.7357775E-02 -0.1666338E+01  0.6511340E+06 -0.1570796E+01  0.4194364E+00 -0.1574434E+01  0.3384922E+06  0.3141591E+01  0.1534704E-02  0.1873681E+01
  0.4325000E+00  0.1314187E+06 -0.3141593E+01  0.6396931E-01  0.1582604E+01  0.6256065E+06 -0.1570796E+01  0.1579590E+01  0.1570062E+01  0.4216722E+06 -0.3141592E+01  0.6573687E-03 -0.3805064E+00
  0.4800000E+00  0.1583651E+06 -0.3141593E+01  0.1654053E+00  0.1570335E+01  0.5982254E+06 -0.1570796E+01  0.4809675E+00  0.1577395E+01  0.5119462E+06  0.3141593E+01  0.1196429E-02  0.6588060E+00
  0.5275000E+00  0.1867003E+06 -0.3141592E+01  0.4260628E-01  0.1584048E+01  0.5693051E+06 -0.1570796E+01  0.9882823E+00  0.1569314E+01  0.6085469E+06  0.3141593E+01  0.9935803E-03  0.2312744E+01
  0.5750000E+00  0.2160706E+06  0.3141593E+01  0.6385048E-01  0.1586330E+01  0.5391679E+06 -0.1570796E+01  0.3315434E+00 -0.1569139E+01  0.7106638E+06 -0.3141592E+01  0.1529537E-02 -0.4993467E+00
  0.6225000E+00  0.2461170E+06 -0.3141593E+01  0.2466810E-01 -0.1674281E+01  0.5081385E+06 -0.1570796E+01  0.2521973E+01 -0.1570240E+01  0.8174492E+06 -0.3141593E+01  0.3172801E-02  0.2376600E+01
  0.6700000E+00  0.2764809E+06  0.3141593E+01  0.7304521E-01 -0.1606734E+01  0.4765385E+06 -0.1570796E+01  0.1151859E+01  0.1568465E+01  0.9280307E+06  0.3141593E+01  0.3400485E-02  0.3671738E+00
  0.7175000E+00  0.3068097E+06  0.3141593E+01  0.8601164E-01 -0.1612321E+01  0.4446815E+06 -0.1570796E+01  0.1259854E+01  0.1558975E+01  0.1041513E+07 -0.3141592E+01  0.3122353E-02 -0.7827114E-01
  0.7650000E+00  0.3367609E+06 -0.3141592E+01  0.1219070E+00  0.1588821E+01  0.4128667E+06 -0.1570796E+01  0.1029447E+01 -0.1587873E+01  0.1156989E+07 -0.3141593E+01  0.5187988E-02  0.2704255E+01
  0.8125000E+00  0.3660082E+06 -0.3141593E+01  0.3067592E-01 -0.1491125E+01  0.3813766E+06 -0.1570796E+01  0.1108907E+01 -0.1564742E+01  0.1273544E+07  0.3141593E+01  0.3854407E-02  0.2950408E+01
  0.8600000E+00  0.3942434E+06  0.3141593E+01  0.8355557E-01 -0.1517081E+01  0.3504716E+06 -0.1570796E+01  0.1765275E+01 -0.1558280E+01  0.1390258E+07 -0.3141593E+01  0.4888912E-02  0.4995840E-01
  0.9075000E+00  0.4211815E+06 -0.3141593E+01  0.7945010E-01 -0.1537757E+01  0.3203876E+06 -0.1570796E+01  0.1412600E+01 -0.1569154E+01  0.1506217E+07 -0.3141593E+01  0.3815552E-02  0.1283232E+00
  0.9550000E+00  0.4465637E+06  0.3141593E+01  0.8658015E-02  0.7055408E-01  0.2913332E+06 -0.1570796E+01  0.8701221E+00  0.1574163E+01  0.1620516E+07 -0.3141593E+01  0.7758910E-02  0.2220819E+00
  0.1002500E+01  0.4701574E+06  0.3141593E+01  0.1478639E-01 -0.1264710E+01  0.2634880E+06 -0.1570796E+01  0.2460711E+00  0.1646769E+01  0.1732253E+07  0.3141593E+01  0.4981007E-02  0.2843094E+01
  0.1050000E+01  0.4917596E+06  0.3141593E+01  0.1348021E+00  0.1532754E+01  0.2370020E+06 -0.1570796E+01  0.4258049E+00 -0.1521754E+01  0.1840550E+07 -0.3141593E+01  0.1713338E-02 -0.1642104E+01
  0.1097500E+01  0.5111971E+06  0.3141593E+01  0.8050769E-01  0.1563215E+01  0.2119938E+06 -0.1570796E+01  0.7768508E+00  0.1595626E+01  0.1944543E+07 -0.3141593E+01  0.3521046E-02  0.2158799E+01
  0.1145000E+01  0.5283265E+06 -0.3141593E+01  0.1840410E-01 -0.1835885E+01  0.1885528E+06 -0.1570796E+01  0.5341821E+00  0.1573767E+01  0.2043387E+07  0.3141593E+01  0.3400485E-02 -0.2774419E+01
  0.1192500E+01  0.5430332E+06  0.3141593E+01  0.3220025E-01 -0.1472071E+01  0.1667388E+06 -0.1570796E+01  0.5350416E+00  0.1576044E+01  0.2136261E+07  0.3141593E+01  0.9887695E-02  0.0000000E+00
  0.1240000E+01  0.5552309E+06 -0.3141593E+01  0.7324649E-01  0.1581629E+01  0.1465842E+06 -0.1570796E+01  0.2374941E+00 -0.1502382E+01  0.2222374E+07  0.3141593E+01  0.2873194E-02  0.2140607E+00
  0.1287500E+01  0.5648621E+06 -0.3141593E+01  0.5903769E-01  0.1547016E+01  0.1280954E+06 -0.1570796E+01  0.2894667E+00 -0.1748424E+01  0.2300971E+07  0.3141593E+01  0.7691398E-02  0.1587168E-01
  0.1335000E+01  0.5718926E+06 -0.3141593E+01  0.2374699E-01 -0.1830737E+01  0.1112555E+06 -0.1570796E+01  0.6139700E+00 -0.1620224E+01  0.2371316E+07  0.3141593E+01  0.2163091E-02  0.2860515E+00
  0.1382500E+01  0.5763120E+06  0.3141593E+01  0.8457634E-01 -0.1602555E+01  0.9602706E+05 -0.1570796E+01  0.5122115E+00  0.1517149E+01  0.2432732E+07 -0.3141593E+01  0.1747781E-02  0.2110933E+00
  0.1430000E+01  0.5781329E+06 -0.3141593E+01  0.3785380E-01 -0.1389212E+01  0.8235452E+05 -0.1570796E+01  0.2725862E+00 -0.1650144E+01  0.2484578E+07  0.3141593E+01  0.1001274E-01  0.2438541E-01
  0.1477500E+01  0.5773848E+06 -0.3141593E+01  0.7143004E-02  0.2347131E+01  0.7016748E+05 -0.1570796E+01  0.3330689E+00 -0.1571529E+01  0.2526259E+07 -0.3141593E+01  0.1220703E-02  0.0000000E+00
  0.1525000E+01  0.5741164E+06  0.3141593E+01  0.5559311E-02 -0.1953341E+01  0.5938365E+05 -0.1570796E+01  0.6140738E-01  0.1752694E+01  0.2557241E+07 -0.3141593E+01  0.3221014E-02 -0.1713791E+00
  0.1572500E+01  0.5683892E+06  0.3141593E+01  0.1562348E-01 -0.1297863E+01  0.4991168E+05 -0.1570796E+01  0.1729761E+00  0.1838627E+01  0.2577044E+07 -0.3141593E+01  0.1795098E-02 -0.3109983E+00
  0.1620000E+01  0.5602800E+06 -0.3141593E+01  0.3998618E-02  0.2595937E+01  0.4165397E+05 -0.1570796E+01  0.5663915E+00  0.1569503E+01  0.2585271E+07  0.3141593E+01  0.2652748E-02 -0.4018706E+00
  0.1667500E+01  0.5498759E+06 -0.3141593E+01  0.1347540E-01 -0.1789957E+01  0.3450931E+05 -0.1570796E+01  0.3086420E+00  0.1473248E+01  0.2581586E+07 -0.3141593E+01  0.9765816E-02  0.3135343E+01
  0.1715000E+01  0.5372736E+06  0.3141593E+01  0.1830906E-01  0.1348963E+01  0.2837522E+05 -0.1570796E+01  0.3238642E-01  0.2165986E+01  0.2565740E+07  0.3141593E+01  0.4154428E-02  0.4408906E-01
  0.1762500E+01  0.5225799E+06 -0.3141593E+01  0.6145202E-02  0.2312286E+01  0.2315005E+05 -0.1570796E+01  0.3533405E+00  0.1664124E+01  0.2537574E+07 -0.3141593E+01  0.4395193E-02  0.1735937E-01
  0.1810000E+01  0.5059094E+06 -0.3141593E+01  0.6677225E-02 -0.1106382E+01  0.1873475E+05 -0.1570796E+01  0.2147115E+00 -0.1579893E+01  0.2497030E+07 -0.3141593E+01  0.3931234E-02  0.1128004E+00
  0.1857500E+01  0.4873837E+06 -0.3141593E+01  0.3891177E-01 -0.1530003E+01  0.1503440E+05 -0.1570796E+01  0.1953650E+00 -0.1606888E+01  0.2444137E+07 -0.3141593E+01  0.6573687E-03 -0.1190290E+01
  0.1905000E+01  0.4671318E+06 -0.3141593E+01  0.2594936E-02  0.2677992E+00  0.1195930E+05 -0.1570796E+01  0.6162554E-01 -0.2304697E+01  0.2379049E+07 -0.3141593E+01  0.2948857E-02 -0.1140858E+00
  0.1952500E+01  0.4452901E+06 -0.3141593E+01  0.9476384E-02  0.2002754E+01  0.9425962E+04 -0.1570796E+01  0.2803774E+00  0.1489836E+01  0.2302022E+07 -0.3141593E+01  0.3183204E-02  0.7677189E-01
  0.2000000E+01  0.4220017E+06 -0.3141593E+01  0.1648672E-01  0.1541175E+01  0.7357569E+04 -0.1570796E+01  0.7630730E-01  0.1711435E+01  0.2213439E+07 -0.3141593E+01  0.3747081E-02 -0.2928224E+01
