VARIABLES="w (rad/s)"
"abs(F   1   1)" "angle(F   1   1)"
"abs(F   1   2)" "angle(F   1   2)"
"abs(F   1   3)" "angle(F   1   3)"
"abs(F   1   4)" "angle(F   1   4)"
"abs(F   1   5)" "angle(F   1   5)"
"abs(F   1   6)" "angle(F   1   6)"
Zone t="FKforce - beta =   0.000",I=    40,F=POINT
  0.5000000E-01  0.1928898E+04  0.3141582E+01  0.3088379E-01 -0.1570634E+01  0.7559355E+06 -0.1570796E+01  0.6904297E+00 -0.1570792E+01  0.5984550E+04 -0.3141591E+01  0.9767828E-03  0.1549559E+01
  0.1000000E+00  0.7686156E+04  0.3141592E+01  0.7812500E-01  0.1571016E+01  0.7501759E+06 -0.1570796E+01  0.1757916E-01 -0.1581647E+01  0.2387786E+05 -0.3141590E+01  0.1710861E-02 -0.1617637E+01
  0.1500000E+00  0.1718412E+05 -0.3141585E+01  0.3808644E-01  0.1575955E+01  0.7406684E+06 -0.1570796E+01  0.4965820E+00  0.1570904E+01  0.5349972E+05  0.3141588E+01  0.1709023E-02  0.1564100E+01
  0.2000000E+00  0.3027859E+05 -0.3141591E+01  0.1281778E-01 -0.1578683E+01  0.7275478E+06 -0.1570796E+01  0.1099122E+01  0.1572018E+01  0.9455316E+05 -0.3141593E+01  0.2452112E-03 -0.1477320E+01
  0.2500000E+00  0.4677208E+05 -0.3141593E+01  0.1206062E+00  0.1574371E+01  0.7109996E+06 -0.1570796E+01  0.1192871E+01 -0.1570796E+01  0.1466287E+06 -0.3141591E+01  0.4028436E-03 -0.6510767E+00
  0.3000000E+00  0.6641741E+05  0.3141591E+01  0.4114064E-01 -0.1582758E+01  0.6912546E+06 -0.1570796E+01  0.1044434E+01 -0.1571585E+01  0.2092111E+06 -0.3141592E+01  0.2469863E-02 -0.1418851E+01
  0.3500000E+00  0.8892312E+05 -0.3141593E+01  0.5896125E-01 -0.1577396E+01  0.6685844E+06 -0.1570796E+01  0.9814465E+00  0.1569242E+01  0.2816863E+06  0.3141592E+01  0.9155273E-04  0.0000000E+00
  0.4000000E+00  0.1139589E+06 -0.3141592E+01  0.4932067E-01 -0.1557647E+01  0.6432966E+06 -0.1570796E+01  0.1082032E+01  0.1572150E+01  0.3633509E+06  0.3141592E+01  0.1859320E-02  0.1975688E+01
  0.4500000E+00  0.1411627E+06 -0.3141593E+01  0.4506007E-01  0.1544041E+01  0.6157254E+06 -0.1570796E+01  0.2783377E+00 -0.1559613E+01  0.4534213E+06  0.3141592E+01  0.7816314E-03  0.6747410E+00
  0.5000000E+00  0.1701467E+06  0.3141593E+01  0.1681544E-01  0.1466252E+01  0.5862282E+06 -0.1570796E+01  0.7158796E+00 -0.1583671E+01  0.5510440E+06  0.3141593E+01  0.2460406E-02 -0.2622447E+01
  0.5500000E+00  0.2005054E+06  0.3141593E+01  0.6082642E-01  0.1604920E+01  0.5551762E+06 -0.1570796E+01  0.3198371E+00 -0.1579766E+01  0.6553071E+06 -0.3141593E+01  0.1831309E-02  0.2730136E+01
  0.6000000E+00  0.2318230E+06  0.3141592E+01  0.6371380E-02 -0.1657120E+01  0.5229472E+06 -0.1570796E+01  0.6176825E+00 -0.1575441E+01  0.7652474E+06 -0.3141593E+01  0.5865729E-02 -0.2096398E+00
  0.6500000E+00  0.2636803E+06  0.3141593E+01  0.5062626E-01  0.1436572E+01  0.4899188E+06 -0.1570796E+01  0.1072326E+01  0.1560152E+01  0.8798634E+06  0.3141593E+01  0.1895041E-02  0.2880990E+01
  0.7000000E+00  0.2956620E+06  0.3141593E+01  0.5802855E-02  0.1420346E+01  0.4564612E+06 -0.1570796E+01  0.1923343E+01 -0.1568956E+01  0.9981256E+06 -0.3141593E+01  0.2513582E-02  0.5070985E+00
  0.7500001E+00  0.3273634E+06  0.3141593E+01  0.1094322E-01 -0.1450592E+01  0.4229311E+06 -0.1570796E+01  0.3397680E-01 -0.1441094E+01  0.1118982E+07 -0.3141593E+01  0.2786307E-02 -0.2073640E+01
  0.8000000E+00  0.3583972E+06  0.3141592E+01  0.4640760E-01  0.1441547E+01  0.3896645E+06 -0.1570796E+01  0.1130407E+01 -0.1578788E+01  0.1241370E+07  0.3141593E+01  0.4523195E-02 -0.5400150E-01
  0.8500000E+00  0.3883975E+06 -0.3141593E+01  0.4408692E-01  0.1541027E+01  0.3569727E+06 -0.1570796E+01  0.1528578E+01  0.1574949E+01  0.1364222E+07  0.3141593E+01  0.7720405E-03 -0.1892547E+01
  0.9000000E+00  0.4170256E+06 -0.3141593E+01  0.7002534E-01 -0.1523275E+01  0.3251380E+06 -0.1570796E+01  0.6318862E+00  0.1601324E+01  0.1486468E+07  0.3141593E+01  0.1660336E-02 -0.6287963E+00
  0.9500000E+00  0.4439726E+06  0.3141593E+01  0.5065919E-01  0.1570194E+01  0.2944092E+06 -0.1570796E+01  0.3810750E+00 -0.1604437E+01  0.1607047E+07 -0.3141593E+01  0.7968303E-02  0.3049546E+01
  0.1000000E+01  0.4689634E+06  0.3141593E+01  0.3245883E-01 -0.1790689E+01  0.2650007E+06 -0.1570796E+01  0.1946783E+01 -0.1573242E+01  0.1724912E+07  0.3141593E+01  0.4632242E-02  0.3217506E+00
  0.1050000E+01  0.4917596E+06 -0.3141593E+01  0.6703397E-01  0.1548032E+01  0.2370888E+06 -0.1570796E+01  0.4711932E+00 -0.1616408E+01  0.1839033E+07  0.3141593E+01  0.1428796E-02  0.3487710E+00
  0.1100000E+01  0.5121573E+06  0.3141593E+01  0.6805146E-01  0.1630026E+01  0.2108138E+06 -0.1570796E+01  0.6763991E+00  0.1566104E+01  0.1948400E+07  0.3141593E+01  0.5783866E-02  0.1269728E+00
  0.1150000E+01  0.5299906E+06 -0.3141593E+01  0.4707374E-01  0.1627877E+01  0.1862783E+06 -0.1570796E+01  0.9313141E-01 -0.1870163E+01  0.2052027E+07  0.3141593E+01  0.3672268E-02  0.1839964E+01
  0.1200000E+01  0.5451276E+06  0.3141593E+01  0.1412143E-01 -0.1514579E+01  0.1635494E+06 -0.1570796E+01  0.5266974E+00  0.1552718E+01  0.2148961E+07 -0.3141593E+01  0.9681338E-02 -0.2899672E+01
  0.1250000E+01  0.5574737E+06 -0.3141593E+01  0.3917853E-01  0.1623789E+01  0.1426608E+06 -0.1570796E+01  0.5157990E+00  0.1584997E+01  0.2238280E+07  0.3141593E+01  0.8857461E-02  0.1243550E+00
  0.1300000E+01  0.5669652E+06 -0.3141593E+01  0.2483561E-01  0.1726248E+01  0.1236145E+06 -0.1570796E+01  0.9331365E+00  0.1604161E+01  0.2319097E+07  0.3141593E+01  0.4214521E-02  0.2966920E+01
  0.1350000E+01  0.5735697E+06  0.3141593E+01  0.9827418E-02  0.1274580E+01  0.1063850E+06 -0.1570796E+01  0.1063816E+01 -0.1557428E+01  0.2390584E+07  0.3141593E+01  0.5579294E-02 -0.1759396E+00
  0.1400000E+01  0.5772843E+06  0.3141593E+01  0.5387469E-01 -0.1684331E+01  0.9092223E+05 -0.1570796E+01  0.1035795E+01  0.1605923E+01  0.2451947E+07  0.3141593E+01  0.1747781E-02  0.2110933E+00
  0.1450000E+01  0.5781287E+06  0.3141593E+01  0.5953664E-01  0.1614893E+01  0.7715502E+05 -0.1570796E+01  0.1217556E+00 -0.1741055E+01  0.2502458E+07 -0.3141593E+01  0.7084286E-02 -0.3446910E-01
  0.1500000E+01  0.5761476E+06  0.3141593E+01  0.2588409E-01 -0.1669996E+01  0.6499564E+05 -0.1570796E+01  0.5708962E+00  0.1589079E+01  0.2541449E+07  0.3141593E+01  0.7164810E-02 -0.2987648E+01
  0.1550000E+01  0.5714041E+06  0.3141593E+01  0.5882614E-01 -0.1509542E+01  0.5434309E+05 -0.1570796E+01  0.5554848E+00 -0.1567060E+01  0.2568326E+07  0.3141593E+01  0.1151609E-02  0.5585993E+00
  0.1600000E+01  0.5639796E+06 -0.3141593E+01  0.3606388E-01 -0.1397301E+01  0.4508687E+05 -0.1570796E+01  0.8153249E+00 -0.1596851E+01  0.2582571E+07 -0.3141593E+01  0.5648308E-02 -0.3033322E+01
  0.1650000E+01  0.5539695E+06 -0.3141593E+01  0.9183015E-02  0.1444174E+01  0.3711075E+05 -0.1570796E+01  0.8187704E+00 -0.1582910E+01  0.2583760E+07  0.3141593E+01  0.2696621E-02 -0.3050933E+01
  0.1700000E+01  0.5414843E+06 -0.3141593E+01  0.5348244E-02 -0.1410338E+01  0.3029563E+05 -0.1570796E+01  0.5234923E-01 -0.1873281E+01  0.2571561E+07 -0.3141593E+01  0.2970099E-02 -0.1651487E+00
  0.1750000E+01  0.5266430E+06 -0.3141593E+01  0.1167749E-01  0.1623088E+01  0.2452255E+05 -0.1570796E+01  0.7255728E-01  0.1292569E+01  0.2545751E+07 -0.3141593E+01  0.6158883E-02 -0.3007404E+01
  0.1800000E+01  0.5095774E+06  0.3141593E+01  0.2457758E-02 -0.2374853E+01  0.1967516E+05 -0.1570796E+01  0.1065866E+00  0.1423382E+01  0.2506224E+07  0.3141593E+01  0.4153056E-02 -0.3583025E-01
  0.1850000E+01  0.4904266E+06 -0.3141593E+01  0.4823666E-02 -0.1469396E+01  0.1564154E+05 -0.1570796E+01  0.1546093E+00  0.1539901E+01  0.2452997E+07 -0.3141593E+01  0.1230203E-02  0.1243550E+00
  0.1900000E+01  0.4693410E+06 -0.3141593E+01  0.1575251E-01  0.1126211E+01  0.1231610E+05 -0.1570796E+01  0.1326458E+00 -0.1535589E+01  0.2386210E+07 -0.3141593E+01  0.1605584E-02 -0.1418147E+01
  0.1950000E+01  0.4464770E+06 -0.3141593E+01  0.1949173E-01 -0.1617784E+01  0.9600546E+04 -0.1570796E+01  0.2604456E+00 -0.1590131E+01  0.2306158E+07 -0.3141593E+01  0.2271459E-02 -0.2605781E+01
  0.2000000E+01  0.4220016E+06 -0.3141593E+01  0.6528480E-02  0.7258660E+00  0.7404784E+04 -0.1570796E+01  0.1750870E+00 -0.1571058E+01  0.2213268E+07  0.3141593E+01  0.5459150E-03 -0.2677945E+01
