VARIABLES="X" "Y" "Z" "Module" "Phase" "Real" "Imag" "Re(NVEL)" "Im(NVEL)"
ZONE t="Free surface",N=      0, E=     -1 , F=FEPOINT,ET=QUADRILATERAL
