 VARIABLES="Time (s)"
"AddedMass    1" "IRF    1"
"AddedMass    2" "IRF    2"
"AddedMass    3" "IRF    3"
"AddedMass    4" "IRF    4"
"AddedMass    5" "IRF    5"
"AddedMass    6" "IRF    6"
Zone t="DoF    1",I=   100,F=POINT
  0.0000000E+00  0.3796039E+06  0.4984245E+06  0.4562783E-04  0.1187553E-02  0.9048581E-03  0.1117829E-02  0.1715259E-03  0.8863985E-02  0.8962986E+06  0.2455453E+07  0.3268011E-04  0.1217821E-02
  0.1000000E+00  0.3796039E+06  0.4886668E+06  0.4562783E-04  0.1175986E-02  0.9048581E-03  0.1138598E-02  0.1715259E-03  0.8762392E-02  0.8962986E+06  0.2401054E+07  0.3268011E-04  0.1202444E-02
  0.2000000E+00  0.3796039E+06  0.4600009E+06  0.4562783E-04  0.1141382E-02  0.9048581E-03  0.1199786E-02  0.1715259E-03  0.8458339E-02  0.8962986E+06  0.2241558E+07  0.3268011E-04  0.1156939E-02
  0.3000000E+00  0.3796039E+06  0.4141948E+06  0.4562783E-04  0.1084069E-02  0.9048581E-03  0.1298100E-02  0.1715259E-03  0.7954222E-02  0.8962986E+06  0.1987732E+07  0.3268011E-04  0.1083144E-02
  0.4000000E+00  0.3796039E+06  0.3540258E+06  0.4562783E-04  0.1004687E-02  0.9048581E-03  0.1428225E-02  0.1715259E-03  0.7254755E-02  0.8962986E+06  0.1656431E+07  0.3268011E-04  0.9839617E-03
  0.5000000E+00  0.3796039E+06  0.2830440E+06  0.4562783E-04  0.9043096E-03  0.9048581E-03  0.1583099E-02  0.1715259E-03  0.6367906E-02  0.8962986E+06  0.1269100E+07  0.3268011E-04  0.8631434E-03
  0.6000000E+00  0.3796039E+06  0.2052771E+06  0.4562783E-04  0.7845801E-03  0.9048581E-03  0.1754278E-02  0.1715259E-03  0.5306058E-02  0.8962986E+06  0.8498898E+06  0.3268011E-04  0.7250123E-03
  0.7000000E+00  0.3796039E+06  0.1249062E+06  0.4562783E-04  0.6478235E-03  0.9048581E-03  0.1932411E-02  0.1715259E-03  0.4087186E-02  0.8962986E+06  0.4236048E+06  0.3268011E-04  0.5741661E-03
  0.8000000E+00  0.3796039E+06  0.4594528E+05  0.4562783E-04  0.4971091E-03  0.9048581E-03  0.2107774E-02  0.1715259E-03  0.2735869E-02  0.8962986E+06  0.1368978E+05  0.3268011E-04  0.4151778E-03
  0.9000000E+00  0.3796039E+06 -0.2804424E+05  0.4562783E-04  0.3362380E-03  0.9048581E-03  0.2270872E-02  0.1715259E-03  0.1283936E-02  0.8962986E+06 -0.3595495E+06  0.3268011E-04  0.2523342E-03
  0.1000000E+01  0.3796039E+06 -0.9417945E+05  0.4562783E-04  0.1696412E-03  0.9048581E-03  0.2413039E-02  0.1715259E-03 -0.2294285E-03  0.8962986E+06 -0.6803199E+06  0.3268011E-04  0.8943284E-04
  0.1100000E+01  0.3796039E+06 -0.1504020E+06  0.4562783E-04  0.2186847E-05  0.9048581E-03  0.2526996E-02  0.1715259E-03 -0.1758259E-02  0.8962986E+06 -0.9381942E+06  0.3268011E-04 -0.7034504E-04
  0.1200000E+01  0.3796039E+06 -0.1955370E+06  0.4562783E-04 -0.1610953E-03  0.9048581E-03  0.2607318E-02  0.1715259E-03 -0.3251153E-02  0.8962986E+06 -0.1128388E+07  0.3268011E-04 -0.2244737E-03
  0.1300000E+01  0.3796039E+06 -0.2292647E+06  0.4562783E-04 -0.3153411E-03  0.9048581E-03  0.2650760E-02  0.1715259E-03 -0.4653377E-02  0.8962986E+06 -0.1251478E+07  0.3268011E-04 -0.3710367E-03
  0.1400000E+01  0.3796039E+06 -0.2520172E+06  0.4562783E-04 -0.4562014E-03  0.9048581E-03  0.2656367E-02  0.1715259E-03 -0.5909679E-02  0.8962986E+06 -0.1312624E+07  0.3268011E-04 -0.5086068E-03
  0.1500000E+01  0.3796039E+06 -0.2648167E+06  0.4562783E-04 -0.5801661E-03  0.9048581E-03  0.2625392E-02  0.1715259E-03 -0.6967598E-02  0.8962986E+06 -0.1320443E+07  0.3268011E-04 -0.6360684E-03
  0.1600000E+01  0.3796039E+06 -0.2690782E+06  0.4562783E-04 -0.6848263E-03  0.9048581E-03  0.2560972E-02  0.1715259E-03 -0.7781077E-02  0.8962986E+06 -0.1285660E+07  0.3268011E-04 -0.7524137E-03
  0.1700000E+01  0.3796039E+06 -0.2664059E+06  0.4562783E-04 -0.7690350E-03  0.9048581E-03  0.2467595E-02  0.1715259E-03 -0.8314003E-02  0.8962986E+06 -0.1219727E+07  0.3268011E-04 -0.8565353E-03
  0.1800000E+01  0.3796039E+06 -0.2584009E+06  0.4562783E-04 -0.8329413E-03  0.9048581E-03  0.2350439E-02  0.1715259E-03 -0.8543380E-02  0.8962986E+06 -0.1133566E+07  0.3268011E-04 -0.9470533E-03
  0.1900000E+01  0.3796039E+06 -0.2465056E+06  0.4562783E-04 -0.8778875E-03  0.9048581E-03  0.2214595E-02  0.1715259E-03 -0.8461732E-02  0.8962986E+06 -0.1036555E+07  0.3268011E-04 -0.1022197E-02
  0.2000000E+01  0.3796039E+06 -0.2318965E+06  0.4562783E-04 -0.9061755E-03  0.9048581E-03  0.2064330E-02  0.1715259E-03 -0.8078516E-02  0.8962986E+06 -0.9358664E+06  0.3268011E-04 -0.1079769E-02
  0.2100000E+01  0.3796039E+06 -0.2154321E+06  0.4562783E-04 -0.9207253E-03  0.9048581E-03  0.1902433E-02  0.1715259E-03 -0.7420156E-02  0.8962986E+06 -0.8361785E+06  0.3268011E-04 -0.1117198E-02
  0.2200000E+01  0.3796039E+06 -0.1976538E+06  0.4562783E-04 -0.9246613E-03  0.9048581E-03  0.1729755E-02  0.1715259E-03 -0.6528776E-02  0.8962986E+06 -0.7397581E+06  0.3268011E-04 -0.1131690E-02
  0.2300000E+01  0.3796039E+06 -0.1788341E+06  0.4562783E-04 -0.9208799E-03  0.9048581E-03  0.1545016E-02  0.1715259E-03 -0.5459486E-02  0.8962986E+06 -0.6468568E+06  0.3268011E-04 -0.1120465E-02
  0.2400000E+01  0.3796039E+06 -0.1590564E+06  0.4562783E-04 -0.9116492E-03  0.9048581E-03  0.1344897E-02  0.1715259E-03 -0.4276464E-02  0.8962986E+06 -0.5563234E+06  0.3268011E-04 -0.1081065E-02
  0.2500000E+01  0.3796039E+06 -0.1383120E+06  0.4562783E-04 -0.8982891E-03  0.9048581E-03  0.1124435E-02  0.1715259E-03 -0.3048162E-02  0.8962986E+06 -0.4663257E+06  0.3268011E-04 -0.1011701E-02
  0.2600000E+01  0.3796039E+06 -0.1165964E+06  0.4562783E-04 -0.8809793E-03  0.9048581E-03  0.8776702E-03  0.1715259E-03 -0.1841961E-02  0.8962986E+06 -0.3750602E+06  0.3268011E-04 -0.9116080E-03
  0.2700000E+01  0.3796039E+06 -0.9398934E+05  0.4562783E-04 -0.8587235E-03  0.9048581E-03  0.5984879E-03  0.1715259E-03 -0.7189091E-03  0.8962986E+06 -0.2813523E+06  0.3268011E-04 -0.7813676E-03
  0.2800000E+01  0.3796039E+06 -0.7070970E+05  0.4562783E-04 -0.8294753E-03  0.9048581E-03  0.2815207E-03  0.1715259E-03  0.2710566E-03  0.8962986E+06 -0.1850632E+06  0.3268011E-04 -0.6231657E-03
  0.2900000E+01  0.3796039E+06 -0.4713549E+05  0.4562783E-04 -0.7904230E-03  0.9048581E-03 -0.7696952E-04  0.1715259E-03  0.1092827E-02  0.8962986E+06 -0.8726649E+05  0.3268011E-04 -0.4409364E-03
  0.3000000E+01  0.3796039E+06 -0.2379153E+05  0.4562783E-04 -0.7383983E-03  0.9048581E-03 -0.4783788E-03  0.1715259E-03  0.1728414E-02  0.8962986E+06  0.9815677E+04  0.3268011E-04 -0.2403821E-03
  0.3100000E+01  0.3796039E+06 -0.1305761E+04  0.4562783E-04 -0.6703634E-03  0.9048581E-03 -0.9213007E-03  0.1715259E-03  0.2177564E-02  0.8962986E+06  0.1030874E+06  0.3268011E-04 -0.2883267E-04
  0.3200000E+01  0.3796039E+06  0.1965386E+05  0.4562783E-04 -0.5839258E-03  0.9048581E-03 -0.1401389E-02  0.1715259E-03  0.2456595E-02  0.8962986E+06  0.1890010E+06  0.3268011E-04  0.1850436E-03
  0.3300000E+01  0.3796039E+06  0.3845332E+05  0.4562783E-04 -0.4778072E-03  0.9048581E-03 -0.1911577E-02  0.1715259E-03  0.2595572E-02  0.8962986E+06  0.2640571E+06  0.3268011E-04  0.3916834E-03
  0.3400000E+01  0.3796039E+06  0.5456407E+05  0.4562783E-04 -0.3522160E-03  0.9048581E-03 -0.2442615E-02  0.1715259E-03  0.2634140E-02  0.8962986E+06  0.3252938E+06  0.3268011E-04  0.5811923E-03
  0.3500000E+01  0.3796039E+06  0.6762106E+05  0.4562783E-04 -0.2090712E-03  0.9048581E-03 -0.2983880E-02  0.1715259E-03  0.2616435E-02  0.8962986E+06  0.3706928E+06  0.3268011E-04  0.7439934E-03
  0.3600000E+01  0.3796039E+06  0.7745988E+05  0.4562783E-04 -0.5203999E-04  0.9048581E-03 -0.3524346E-02  0.1715259E-03  0.2585683E-02  0.8962986E+06  0.3994454E+06  0.3268011E-04  0.8715194E-03
  0.3700000E+01  0.3796039E+06  0.8412720E+05  0.4562783E-04  0.1136174E-03  0.9048581E-03 -0.4053565E-02  0.1715259E-03  0.2579049E-02  0.8962986E+06  0.4120402E+06  0.3268011E-04  0.9568782E-03
  0.3800000E+01  0.3796039E+06  0.8786459E+05  0.4562783E-04  0.2813939E-03  0.9048581E-03 -0.4562561E-02  0.1715259E-03  0.2623325E-02  0.8962986E+06  0.4101717E+06  0.3268011E-04  0.9954463E-03
  0.3900000E+01  0.3796039E+06  0.8906919E+05  0.4562783E-04  0.4440409E-03  0.9048581E-03 -0.5044486E-02  0.1715259E-03  0.2731977E-02  0.8962986E+06  0.3964925E+06  0.3268011E-04  0.9853219E-03
  0.4000000E+01  0.3796039E+06  0.8823755E+05  0.4562783E-04  0.5941723E-03  0.9048581E-03 -0.5494958E-02  0.1715259E-03  0.2903824E-02  0.8962986E+06  0.3742463E+06  0.3268011E-04  0.9275944E-03
  0.4100000E+01  0.3796039E+06  0.8590191E+05  0.4562783E-04  0.7249294E-03  0.9048581E-03 -0.5912032E-02  0.1715259E-03  0.3123506E-02  0.8962986E+06  0.3468503E+06  0.3268011E-04  0.8263924E-03
  0.4200000E+01  0.3796039E+06  0.8256766E+05  0.4562783E-04  0.8306084E-03  0.9048581E-03 -0.6295819E-02  0.1715259E-03  0.3363663E-02  0.8962986E+06  0.3174818E+06  0.3268011E-04  0.6886887E-03
  0.4300000E+01  0.3796039E+06  0.7866145E+05  0.4562783E-04  0.9072017E-03  0.9048581E-03 -0.6647774E-02  0.1715259E-03  0.3588528E-02  0.8962986E+06  0.2887340E+06  0.3268011E-04  0.5238751E-03
  0.4400000E+01  0.3796039E+06  0.7449530E+05  0.4562783E-04  0.9527877E-03  0.9048581E-03 -0.6969810E-02  0.1715259E-03  0.3758512E-02  0.8962986E+06  0.2623794E+06  0.3268011E-04  0.3431144E-03
  0.4500000E+01  0.3796039E+06  0.7025184E+05  0.4562783E-04  0.9677255E-03  0.9048581E-03 -0.7263343E-02  0.1715259E-03  0.3835174E-02  0.8962986E+06  0.2392725E+06  0.3268011E-04  0.1585319E-03
  0.4600000E+01  0.3796039E+06  0.6598960E+05  0.4562783E-04  0.9546240E-03  0.9048581E-03 -0.7528375E-02  0.1715259E-03  0.3786046E-02  0.8962986E+06  0.2193920E+06  0.3268011E-04 -0.1769620E-04
  0.4700000E+01  0.3796039E+06  0.6166642E+05  0.4562783E-04  0.9180959E-03  0.9048581E-03 -0.7762844E-02  0.1715259E-03  0.3588669E-02  0.8962986E+06  0.2020039E+06  0.3268011E-04 -0.1742806E-03
  0.4800000E+01  0.3796039E+06  0.5717577E+05  0.4562783E-04  0.8643086E-03  0.9048581E-03 -0.7962251E-02  0.1715259E-03  0.3233434E-02  0.8962986E+06  0.1859156E+06  0.3268011E-04 -0.3016956E-03
  0.4900000E+01  0.3796039E+06  0.5238830E+05  0.4562783E-04  0.8003751E-03  0.9048581E-03 -0.8119727E-02  0.1715259E-03  0.2724899E-02  0.8962986E+06  0.1697680E+06  0.3268011E-04 -0.3929216E-03
  0.5000000E+01  0.3796039E+06  0.4719267E+05  0.4562783E-04  0.7336507E-03  0.9048581E-03 -0.8226450E-02  0.1715259E-03  0.2081464E-02  0.8962986E+06  0.1523224E+06  0.3268011E-04 -0.4439684E-03
  0.5100000E+01  0.3796039E+06  0.4152829E+05  0.4562783E-04  0.6710009E-03  0.9048581E-03 -0.8272449E-02  0.1715259E-03  0.1333526E-02  0.8962986E+06  0.1326973E+06  0.3268011E-04 -0.4541361E-03
  0.5200000E+01  0.3796039E+06  0.3540534E+05  0.4562783E-04  0.6181067E-03  0.9048581E-03 -0.8247644E-02  0.1715259E-03  0.5203380E-03  0.8962986E+06  0.1105186E+06  0.3268011E-04 -0.4259823E-03
  0.5300000E+01  0.3796039E+06  0.2891050E+05  0.4562783E-04  0.5788930E-03  0.9048581E-03 -0.8143028E-02  0.1715259E-03 -0.3139369E-03  0.8962986E+06  0.8596997E+05  0.3268011E-04 -0.3649948E-03
  0.5400000E+01  0.3796039E+06  0.2219732E+05  0.4562783E-04  0.5551129E-03  0.9048581E-03 -0.7951772E-02  0.1715259E-03 -0.1124547E-02  0.8962986E+06  0.5974204E+05  0.3268011E-04 -0.2789958E-03
  0.5500000E+01  0.3796039E+06  0.1546512E+05  0.4562783E-04  0.5461547E-03  0.9048581E-03 -0.7670164E-02  0.1715259E-03 -0.1870256E-02  0.8962986E+06  0.3289502E+05  0.3268011E-04 -0.1773425E-03
  0.5600000E+01  0.3796039E+06  0.8930435E+04  0.4562783E-04  0.5490729E-03  0.9048581E-03 -0.7298232E-02  0.1715259E-03 -0.2516787E-02  0.8962986E+06  0.6669439E+04  0.3268011E-04 -0.6999413E-04
  0.5700000E+01  0.3796039E+06  0.2796262E+04  0.4562783E-04  0.5588476E-03  0.9048581E-03 -0.6839916E-02  0.1715259E-03 -0.3039243E-02  0.8962986E+06 -0.1772442E+05  0.3268011E-04  0.3345059E-04
  0.5800000E+01  0.3796039E+06 -0.2774972E+04  0.4562783E-04  0.5688542E-03  0.9048581E-03 -0.6302834E-02  0.1715259E-03 -0.3423270E-02  0.8962986E+06 -0.3929696E+05  0.3268011E-04  0.1246554E-03
  0.5900000E+01  0.3796039E+06 -0.7680391E+04  0.4562783E-04  0.5714911E-03  0.9048581E-03 -0.5697631E-02  0.1715259E-03 -0.3664984E-02  0.8962986E+06 -0.5741915E+05  0.3268011E-04  0.1972884E-03
  0.6000000E+01  0.3796039E+06 -0.1188442E+05  0.4562783E-04  0.5589111E-03  0.9048581E-03 -0.5036976E-02  0.1715259E-03 -0.3769696E-02  0.8962986E+06 -0.7188936E+05  0.3268011E-04  0.2475311E-03
  0.6100000E+01  0.3796039E+06 -0.1541462E+05  0.4562783E-04  0.5237964E-03  0.9048581E-03 -0.4334393E-02  0.1715259E-03 -0.3749837E-02  0.8962986E+06 -0.8292095E+05  0.3268011E-04  0.2742981E-03
  0.6200000E+01  0.3796039E+06 -0.1834649E+05  0.4562783E-04  0.4600968E-03  0.9048581E-03 -0.3603012E-02  0.1715259E-03 -0.3622344E-02  0.8962986E+06 -0.9105340E+05  0.3268011E-04  0.2791553E-03
  0.6300000E+01  0.3796039E+06 -0.2078082E+05  0.4562783E-04  0.3636746E-03  0.9048581E-03 -0.2854516E-02  0.1715259E-03 -0.3406000E-02  0.8962986E+06 -0.9701117E+05  0.3268011E-04  0.2659437E-03
  0.6400000E+01  0.3796039E+06 -0.2281790E+05  0.4562783E-04  0.2327895E-03  0.9048581E-03 -0.2098277E-02  0.1715259E-03 -0.3119082E-02  0.8962986E+06 -0.1015347E+06  0.3268011E-04  0.2401596E-03
  0.6500000E+01  0.3796039E+06 -0.2453342E+05  0.4562783E-04  0.6839178E-04  0.9048581E-03 -0.1340904E-02  0.1715259E-03 -0.2777643E-02  0.8962986E+06 -0.1052182E+06  0.3268011E-04  0.2081688E-03
  0.6600000E+01  0.3796039E+06 -0.2596025E+05  0.4562783E-04 -0.1258052E-03  0.9048581E-03 -0.5862166E-03  0.1715259E-03 -0.2394609E-02  0.8962986E+06 -0.1083816E+06  0.3268011E-04  0.1763431E-03
  0.6700000E+01  0.3796039E+06 -0.2708053E+05  0.4562783E-04 -0.3434838E-03  0.9048581E-03  0.1643837E-03  0.1715259E-03 -0.1979737E-02  0.8962986E+06 -0.1110047E+06  0.3268011E-04  0.1502309E-03
  0.6800000E+01  0.3796039E+06 -0.2782800E+05  0.4562783E-04 -0.5760837E-03  0.9048581E-03  0.9111692E-03  0.1715259E-03 -0.1540372E-02  0.8962986E+06 -0.1127291E+06  0.3268011E-04  0.1338550E-03
  0.6900000E+01  0.3796039E+06 -0.2810255E+05  0.4562783E-04 -0.8133592E-03  0.9048581E-03  0.1655158E-02  0.1715259E-03 -0.1082719E-02  0.8962986E+06 -0.1129379E+06  0.3268011E-04  0.1292201E-03
  0.7000000E+01  0.3796039E+06 -0.2779205E+05  0.4562783E-04 -0.1044054E-02  0.9048581E-03  0.2397066E-02  0.1715259E-03 -0.6133664E-03  0.8962986E+06 -0.1108874E+06  0.3268011E-04  0.1360961E-03
  0.7100000E+01  0.3796039E+06 -0.2679953E+05  0.4562783E-04 -0.1256669E-02  0.9048581E-03  0.3136354E-02  0.1715259E-03 -0.1407245E-03  0.8962986E+06 -0.1058763E+06  0.3268011E-04  0.1520905E-03
  0.7200000E+01  0.3796039E+06 -0.2507015E+05  0.4562783E-04 -0.1440238E-02  0.9048581E-03  0.3870507E-02  0.1715259E-03  0.3239814E-03  0.8962986E+06 -0.9741977E+05  0.3268011E-04  0.1730025E-03
  0.7300000E+01  0.3796039E+06 -0.2261293E+05  0.4562783E-04 -0.1585062E-02  0.9048581E-03  0.4594637E-02  0.1715259E-03  0.7663468E-03  0.8962986E+06 -0.8539474E+05  0.3268011E-04  0.1934167E-03
  0.7400000E+01  0.3796039E+06 -0.1951360E+05  0.4562783E-04 -0.1683354E-02  0.9048581E-03  0.5301496E-02  0.1715259E-03  0.1169244E-02  0.8962986E+06 -0.7013134E+05  0.3268011E-04  0.2074496E-03
  0.7500000E+01  0.3796039E+06 -0.1593516E+05  0.4562783E-04 -0.1729724E-02  0.9048581E-03  0.5981883E-02  0.1715259E-03  0.1514057E-02  0.8962986E+06 -0.5243194E+05  0.3268011E-04  0.2095642E-03
  0.7600000E+01  0.3796039E+06 -0.1210587E+05  0.4562783E-04 -0.1721500E-02  0.9048581E-03  0.6625388E-02  0.1715259E-03  0.1782547E-02  0.8962986E+06 -0.3350904E+05  0.3268011E-04  0.1953382E-03
  0.7700000E+01  0.3796039E+06 -0.8295918E+04  0.4562783E-04 -0.1658842E-02  0.9048581E-03  0.7221362E-02  0.1715259E-03  0.1959131E-02  0.8962986E+06 -0.1485128E+05  0.3268011E-04  0.1620968E-03
  0.7800000E+01  0.3796039E+06 -0.4785424E+04  0.4562783E-04 -0.1544677E-02  0.9048581E-03  0.7759985E-02  0.1715259E-03  0.2033184E-02  0.8962986E+06  0.1965678E+04  0.3268011E-04  0.1093240E-03
  0.7900000E+01  0.3796039E+06 -0.1828879E+04  0.4562783E-04 -0.1384419E-02  0.9048581E-03  0.8233265E-02  0.1715259E-03  0.2001050E-02  0.8962986E+06  0.1549514E+05  0.3268011E-04  0.3880117E-04
  0.8000000E+01  0.3796039E+06  0.3784941E+03  0.4562783E-04 -0.1185571E-02  0.9048581E-03  0.8635806E-02  0.1715259E-03  0.1867390E-02  0.8962986E+06  0.2462659E+05  0.3268011E-04 -0.4554429E-04
  0.8100000E+01  0.3796039E+06  0.1727733E+04  0.4562783E-04 -0.9571820E-03  0.9048581E-03  0.8965252E-02  0.1715259E-03  0.1645613E-02  0.8962986E+06  0.2875343E+05  0.3268011E-04 -0.1380598E-03
  0.8200000E+01  0.3796039E+06  0.2212013E+04  0.4562783E-04 -0.7092408E-03  0.9048581E-03  0.9222344E-02  0.1715259E-03  0.1357268E-02  0.8962986E+06  0.2787468E+05  0.3268011E-04 -0.2320044E-03
  0.8300000E+01  0.3796039E+06  0.1928141E+04  0.4562783E-04 -0.4520415E-03  0.9048581E-03  0.9410561E-02  0.1715259E-03  0.1030368E-02  0.8962986E+06  0.2260837E+05  0.3268011E-04 -0.3203270E-03
  0.8400001E+01  0.3796039E+06  0.1064242E+04  0.4562783E-04 -0.1955814E-03  0.9048581E-03  0.9535381E-02  0.1715259E-03  0.6968342E-03  0.8962986E+06  0.1411979E+05  0.3268011E-04 -0.3964682E-03
  0.8500000E+01  0.3796039E+06 -0.1259383E+03  0.4562783E-04  0.5098437E-04  0.9048581E-03  0.9603360E-02  0.1715259E-03  0.3893153E-03  0.8962986E+06  0.3966531E+04  0.3268011E-04 -0.4551072E-03
  0.8600000E+01  0.3796039E+06 -0.1357841E+04  0.4562783E-04  0.2797964E-03  0.9048581E-03  0.9621040E-02  0.1715259E-03  0.1377511E-03  0.8962986E+06 -0.6113366E+04  0.3268011E-04 -0.4927436E-03
  0.8700000E+01  0.3796039E+06 -0.2355332E+04  0.4562783E-04  0.4845904E-03  0.9048581E-03  0.9593942E-02  0.1715259E-03 -0.3386897E-04  0.8962986E+06 -0.1444135E+05  0.3268011E-04 -0.5080441E-03
  0.8800000E+01  0.3796039E+06 -0.2888709E+04  0.4562783E-04  0.6609040E-03  0.9048581E-03  0.9525755E-02  0.1715259E-03 -0.1101919E-03  0.8962986E+06 -0.1963138E+05  0.3268011E-04 -0.5019184E-03
  0.8900001E+01  0.3796039E+06 -0.2805260E+04  0.4562783E-04  0.8061064E-03  0.9048581E-03  0.9417874E-02  0.1715259E-03 -0.8623625E-04  0.8962986E+06 -0.2077729E+05  0.3268011E-04 -0.4773113E-03
  0.9000000E+01  0.3796039E+06 -0.2049884E+04  0.4562783E-04  0.9193248E-03  0.9048581E-03  0.9269292E-02  0.1715259E-03  0.3198506E-04  0.8962986E+06 -0.1757712E+05  0.3268011E-04 -0.4387500E-03
  0.9100000E+01  0.3796039E+06 -0.6698779E+03  0.4562783E-04  0.1001267E-02  0.9048581E-03  0.9076988E-02  0.1715259E-03  0.2281087E-03  0.8962986E+06 -0.1036169E+05  0.3268011E-04 -0.3916967E-03
  0.9200000E+01  0.3796039E+06  0.1193832E+04  0.4562783E-04  0.1053946E-02  0.9048581E-03  0.8836643E-02  0.1715259E-03  0.4772103E-03  0.8962986E+06 -0.3668584E+02  0.3268011E-04 -0.3418147E-03
  0.9300000E+01  0.3796039E+06  0.3329278E+04  0.4562783E-04  0.1080370E-02  0.9048581E-03  0.8543625E-02  0.1715259E-03  0.7485437E-03  0.8962986E+06  0.1205934E+05  0.3268011E-04 -0.2942207E-03
  0.9400001E+01  0.3796039E+06  0.5485572E+04  0.4562783E-04  0.1084200E-02  0.9048581E-03  0.8194155E-02  0.1715259E-03  0.1008917E-02  0.8962986E+06  0.2435710E+05  0.3268011E-04 -0.2528468E-03
  0.9500000E+01  0.3796039E+06  0.7410042E+04  0.4562783E-04  0.1069426E-02  0.9048581E-03  0.7786413E-02  0.1715259E-03  0.1226280E-02  0.8962986E+06  0.3528770E+05  0.3268011E-04 -0.2199745E-03
  0.9600000E+01  0.3796039E+06  0.8884719E+04  0.4562783E-04  0.1040066E-02  0.9048581E-03  0.7321430E-02  0.1715259E-03  0.1373116E-02  0.8962986E+06  0.4350982E+05  0.3268011E-04 -0.1960141E-03
  0.9700000E+01  0.3796039E+06  0.9756671E+04  0.4562783E-04  0.9999160E-03  0.9048581E-03  0.6803714E-02  0.1715259E-03  0.1429242E-02  0.8962986E+06  0.4809701E+05  0.3268011E-04 -0.1795477E-03
  0.9800000E+01  0.3796039E+06  0.9957347E+04  0.4562783E-04  0.9523556E-03  0.9048581E-03  0.6241371E-02  0.1715259E-03  0.1383713E-02  0.8962986E+06  0.4865525E+05  0.3268011E-04 -0.1676290E-03
  0.9900001E+01  0.3796039E+06  0.9509546E+04  0.4562783E-04  0.9002227E-03  0.9048581E-03  0.5645830E-02  0.1715259E-03  0.1235646E-02  0.8962986E+06  0.4536263E+05  0.3268011E-04 -0.1562931E-03
Zone t="DoF    2",I=   100,F=POINT
  0.0000000E+00  0.6624025E-03  0.5300345E-03  0.3796039E+06  0.4984244E+06 -0.1600612E-04  0.5654967E-04 -0.8962985E+06 -0.2455453E+07  0.1269557E-03  0.2788200E-03  0.2311935E-02  0.2676667E-03
  0.1000000E+00  0.6624025E-03  0.5192287E-03  0.3796039E+06  0.4886668E+06 -0.1600612E-04  0.5669359E-04 -0.8962985E+06 -0.2401054E+07  0.1269557E-03  0.2525955E-03  0.2311935E-02  0.2604251E-03
  0.2000000E+00  0.6624025E-03  0.4875735E-03  0.3796039E+06  0.4600008E+06 -0.1600612E-04  0.5708705E-04 -0.8962985E+06 -0.2241558E+07  0.1269557E-03  0.1743318E-03  0.2311935E-02  0.2399728E-03
  0.3000000E+00  0.6624025E-03  0.4372838E-03  0.3796039E+06  0.4141948E+06 -0.1600612E-04  0.5761804E-04 -0.8962985E+06 -0.1987732E+07  0.1269557E-03  0.4546663E-04  0.2311935E-02  0.2099779E-03
  0.4000000E+00  0.6624025E-03  0.3718287E-03  0.3796039E+06  0.3540257E+06 -0.1600612E-04  0.5810941E-04 -0.8962985E+06 -0.1656432E+07  0.1269557E-03 -0.1309393E-03  0.2311935E-02  0.1760581E-03
  0.5000000E+00  0.6624025E-03  0.2956164E-03  0.3796039E+06  0.2830440E+06 -0.1600612E-04  0.5833273E-04 -0.8962985E+06 -0.1269100E+07  0.1269557E-03 -0.3493605E-03  0.2311935E-02  0.1450883E-03
  0.6000000E+00  0.6624025E-03  0.2136058E-03  0.3796039E+06  0.2052771E+06 -0.1600612E-04  0.5802573E-04 -0.8962985E+06 -0.8498900E+06  0.1269557E-03 -0.6009191E-03  0.2311935E-02  0.1243235E-03
  0.7000000E+00  0.6624025E-03  0.1308738E-03  0.3796039E+06  0.1249062E+06 -0.1600612E-04  0.5691325E-04 -0.8962985E+06 -0.4236048E+06  0.1269557E-03 -0.8726731E-03  0.2311935E-02  0.1204273E-03
  0.8000000E+00  0.6624025E-03  0.5218956E-04  0.3796039E+06  0.4594525E+05 -0.1600612E-04  0.5472906E-04 -0.8962985E+06 -0.1368975E+05  0.1269557E-03 -0.1147306E-02  0.2311935E-02  0.1385022E-03
  0.9000000E+00  0.6624025E-03 -0.1836796E-04  0.3796039E+06 -0.2804426E+05 -0.1600612E-04  0.5123816E-04 -0.8962985E+06  0.3595495E+06  0.1269557E-03 -0.1403403E-02  0.2311935E-02  0.1812308E-03
  0.1000000E+01  0.6624025E-03 -0.7771039E-04  0.3796039E+06 -0.9417946E+05 -0.1600612E-04  0.4625685E-04 -0.8962985E+06  0.6803201E+06  0.1269557E-03 -0.1616400E-02  0.2311935E-02  0.2482294E-03
  0.1100000E+01  0.6624025E-03 -0.1239334E-03  0.3796039E+06 -0.1504020E+06 -0.1600612E-04  0.3967011E-04 -0.8962985E+06  0.9381944E+06  0.1269557E-03 -0.1760225E-02  0.2311935E-02  0.3357016E-03
  0.1200000E+01  0.6624025E-03 -0.1563883E-03  0.3796039E+06 -0.1955370E+06 -0.1600612E-04  0.3144476E-04 -0.8962985E+06  0.1128388E+07  0.1269557E-03 -0.1809510E-02  0.2311935E-02  0.4364520E-03
  0.1300000E+01  0.6624025E-03 -0.1756314E-03  0.3796039E+06 -0.2292647E+06 -0.1600612E-04  0.2163731E-04 -0.8962985E+06  0.1251478E+07  0.1269557E-03 -0.1742174E-02  0.2311935E-02  0.5402986E-03
  0.1400000E+01  0.6624025E-03 -0.1832625E-03  0.3796039E+06 -0.2520172E+06 -0.1600612E-04  0.1039613E-04 -0.8962985E+06  0.1312624E+07  0.1269557E-03 -0.1542098E-02  0.2311935E-02  0.6348659E-03
  0.1500000E+01  0.6624025E-03 -0.1816755E-03  0.3796039E+06 -0.2648166E+06 -0.1600612E-04 -0.2042236E-05 -0.8962985E+06  0.1320443E+07  0.1269557E-03 -0.1201565E-02  0.2311935E-02  0.7067145E-03
  0.1600000E+01  0.6624025E-03 -0.1737532E-03  0.3796039E+06 -0.2690782E+06 -0.1600612E-04 -0.1536231E-04 -0.8962985E+06  0.1285661E+07  0.1269557E-03 -0.7231395E-03  0.2311935E-02  0.7427045E-03
  0.1700000E+01  0.6624025E-03 -0.1625400E-03  0.3796039E+06 -0.2664058E+06 -0.1600612E-04 -0.2918429E-04 -0.8962985E+06  0.1219728E+07  0.1269557E-03 -0.1207119E-03  0.2311935E-02  0.7314740E-03
  0.1800000E+01  0.6624025E-03 -0.1509290E-03  0.3796039E+06 -0.2584009E+06 -0.1600612E-04 -0.4308220E-04 -0.8962985E+06  0.1133566E+07  0.1269557E-03  0.5804900E-03  0.2311935E-02  0.6648711E-03
  0.1900000E+01  0.6624025E-03 -0.1413945E-03  0.3796039E+06 -0.2465056E+06 -0.1600612E-04 -0.5660575E-04 -0.8962985E+06  0.1036555E+07  0.1269557E-03  0.1345008E-02  0.2311935E-02  0.5391820E-03
  0.2000000E+01  0.6624025E-03 -0.1357930E-03  0.3796039E+06 -0.2318964E+06 -0.1600612E-04 -0.6930255E-04 -0.8962985E+06  0.9358666E+06  0.1269557E-03  0.2129318E-02  0.2311935E-02  0.3559923E-03
  0.2100000E+01  0.6624025E-03 -0.1352480E-03  0.3796039E+06 -0.2154320E+06 -0.1600612E-04 -0.8074135E-04 -0.8962985E+06  0.8361786E+06  0.1269557E-03  0.2884912E-02  0.2311935E-02  0.1225656E-03
  0.2200000E+01  0.6624025E-03 -0.1401227E-03  0.3796039E+06 -0.1976537E+06 -0.1600612E-04 -0.9053330E-04 -0.8962985E+06  0.7397584E+06  0.1269557E-03  0.3561968E-02  0.2311935E-02 -0.1483514E-03
  0.2300000E+01  0.6624025E-03 -0.1500710E-03  0.3796039E+06 -0.1788340E+06 -0.1600612E-04 -0.9835019E-04 -0.8962985E+06  0.6468569E+06  0.1269557E-03  0.4113327E-02  0.2311935E-02 -0.4393258E-03
  0.2400000E+01  0.6624025E-03 -0.1641563E-03  0.3796039E+06 -0.1590564E+06 -0.1600612E-04 -0.1039391E-03 -0.8962985E+06  0.5563236E+06  0.1269557E-03  0.4498289E-02  0.2311935E-02 -0.7295858E-03
  0.2500000E+01  0.6624025E-03 -0.1810093E-03  0.3796039E+06 -0.1383120E+06 -0.1600612E-04 -0.1071322E-03 -0.8962985E+06  0.4663258E+06  0.1269557E-03  0.4685927E-02  0.2311935E-02 -0.9968153E-03
  0.2600000E+01  0.6624025E-03 -0.1990094E-03  0.3796039E+06 -0.1165964E+06 -0.1600612E-04 -0.1078504E-03 -0.8962985E+06  0.3750606E+06  0.1269557E-03  0.4657568E-02  0.2311935E-02 -0.1219245E-02
  0.2700000E+01  0.6624025E-03 -0.2164558E-03  0.3796039E+06 -0.9398938E+05 -0.1600612E-04 -0.1061034E-03 -0.8962985E+06  0.2813526E+06  0.1269557E-03  0.4408189E-02  0.2311935E-02 -0.1377792E-02
  0.2800000E+01  0.6624025E-03 -0.2317164E-03  0.3796039E+06 -0.7070968E+05 -0.1600612E-04 -0.1019825E-03 -0.8962985E+06  0.1850634E+06  0.1269557E-03  0.3946650E-02  0.2311935E-02 -0.1458070E-02
  0.2900000E+01  0.6624025E-03 -0.2433361E-03  0.3796039E+06 -0.4713549E+05 -0.1600612E-04 -0.9565104E-04 -0.8962985E+06  0.8726671E+05  0.1269557E-03  0.3294756E-02  0.2311935E-02 -0.1451987E-02
  0.3000000E+01  0.6624025E-03 -0.2500986E-03  0.3796039E+06 -0.2379150E+05 -0.1600612E-04 -0.8732978E-04 -0.8962985E+06 -0.9815513E+04  0.1269557E-03  0.2485289E-02  0.2311935E-02 -0.1358773E-02
  0.3100000E+01  0.6624025E-03 -0.2510449E-03  0.3796039E+06 -0.1305751E+04 -0.1600612E-04 -0.7728125E-04 -0.8962985E+06 -0.1030873E+06  0.1269557E-03  0.1559241E-02  0.2311935E-02 -0.1185288E-02
  0.3200000E+01  0.6624025E-03 -0.2454580E-03  0.3796039E+06  0.1965384E+05 -0.1600612E-04 -0.6579269E-04 -0.8962985E+06 -0.1890009E+06  0.1269557E-03  0.5625964E-03  0.2311935E-02 -0.9455428E-03
  0.3300000E+01  0.6624025E-03 -0.2328237E-03  0.3796039E+06  0.3845331E+05 -0.1600612E-04 -0.5315997E-04 -0.8962985E+06 -0.2640571E+06  0.1269557E-03 -0.4570705E-03  0.2311935E-02 -0.6594496E-03
  0.3400000E+01  0.6624025E-03 -0.2127893E-03  0.3796039E+06  0.5456404E+05 -0.1600612E-04 -0.3967294E-04 -0.8962985E+06 -0.3252938E+06  0.1269557E-03 -0.1453789E-02  0.2311935E-02 -0.3509377E-03
  0.3500000E+01  0.6624025E-03 -0.1851343E-03  0.3796039E+06  0.6762106E+05 -0.1600612E-04 -0.2560408E-04 -0.8962985E+06 -0.3706929E+06  0.1269557E-03 -0.2385921E-02  0.2311935E-02 -0.4560549E-04
  0.3600000E+01  0.6624025E-03 -0.1497646E-03  0.3796039E+06  0.7745985E+05 -0.1600612E-04 -0.1120051E-04 -0.8962985E+06 -0.3994455E+06  0.1269557E-03 -0.3218250E-02  0.2311935E-02  0.2318331E-03
  0.3700000E+01  0.6624025E-03 -0.1067391E-03  0.3796039E+06  0.8412720E+05 -0.1600612E-04  0.3319737E-05 -0.8962985E+06 -0.4120403E+06  0.1269557E-03 -0.3923267E-02  0.2311935E-02  0.4600289E-03
  0.3800000E+01  0.6624025E-03 -0.5632900E-04  0.3796039E+06  0.8786457E+05 -0.1600612E-04  0.1776733E-04 -0.8962985E+06 -0.4101719E+06  0.1269557E-03 -0.4481701E-02  0.2311935E-02  0.6231183E-03
  0.3900000E+01  0.6624025E-03  0.9001836E-06  0.3796039E+06  0.8906916E+05 -0.1600612E-04  0.3197787E-04 -0.8962985E+06 -0.3964926E+06  0.1269557E-03 -0.4882321E-02  0.2311935E-02  0.7122523E-03
  0.4000000E+01  0.6624025E-03  0.6399356E-04  0.3796039E+06  0.8823752E+05 -0.1600612E-04  0.4580458E-04 -0.8962985E+06 -0.3742463E+06  0.1269557E-03 -0.5121191E-02  0.2311935E-02  0.7263444E-03
  0.4100000E+01  0.6624025E-03  0.1315224E-03  0.3796039E+06  0.8590192E+05 -0.1600612E-04  0.5910988E-04 -0.8962985E+06 -0.3468502E+06  0.1269557E-03 -0.5200557E-02  0.2311935E-02  0.6719532E-03
  0.4200000E+01  0.6624025E-03  0.2015269E-03  0.3796039E+06  0.8256764E+05 -0.1600612E-04  0.7175552E-04 -0.8962985E+06 -0.3174817E+06  0.1269557E-03 -0.5127562E-02  0.2311935E-02  0.5623155E-03
  0.4300000E+01  0.6624025E-03  0.2715052E-03  0.3796039E+06  0.7866143E+05 -0.1600612E-04  0.8359362E-04 -0.8962985E+06 -0.2887340E+06  0.1269557E-03 -0.4912978E-02  0.2311935E-02  0.4156395E-03
  0.4400000E+01  0.6624025E-03  0.3384671E-03  0.3796039E+06  0.7449527E+05 -0.1600612E-04  0.9445972E-04 -0.8962985E+06 -0.2623793E+06  0.1269557E-03 -0.4570099E-02  0.2311935E-02  0.2528587E-03
  0.4500000E+01  0.6624025E-03  0.3990550E-03  0.3796039E+06  0.7025181E+05 -0.1600612E-04  0.1041678E-03 -0.8962985E+06 -0.2392725E+06  0.1269557E-03 -0.4113899E-02  0.2311935E-02  0.9512089E-04
  0.4600000E+01  0.6624025E-03  0.4497312E-03  0.3796039E+06  0.6598958E+05 -0.1600612E-04  0.1125100E-03 -0.8962985E+06 -0.2193920E+06  0.1269557E-03 -0.3560452E-02  0.2311935E-02 -0.3868810E-04
  0.4700000E+01  0.6624025E-03  0.4870229E-03  0.3796039E+06  0.6166644E+05 -0.1600612E-04  0.1192588E-03 -0.8962985E+06 -0.2020039E+06  0.1269557E-03 -0.2926629E-02  0.2311935E-02 -0.1340980E-03
  0.4800000E+01  0.6624025E-03  0.5077979E-03  0.3796039E+06  0.5717574E+05 -0.1600612E-04  0.1241747E-03 -0.8962985E+06 -0.1859155E+06  0.1269557E-03 -0.2229990E-02  0.2311935E-02 -0.1826142E-03
  0.4900000E+01  0.6624025E-03  0.5095527E-03  0.3796039E+06  0.5238830E+05 -0.1600612E-04  0.1270163E-03 -0.8962985E+06 -0.1697679E+06  0.1269557E-03 -0.1488741E-02  0.2311935E-02 -0.1825271E-03