 VARIABLES="Time (s)"
"AddedMass    1" "IRF    1"
"AddedMass    2" "IRF    2"
"AddedMass    3" "IRF    3"
"AddedMass    4" "IRF    4"
"AddedMass    5" "IRF    5"
"AddedMass    6" "IRF    6"
Zone t="DoF    1",I=   100,F=POINT
  0.0000000E+00  0.1097097E+07 -0.3295793E+06 -0.3020769E-02  0.6822322E-03  0.1552433E-01 -0.4989982E-03  0.1070574E-03  0.7872030E-04  0.3567642E+07 -0.1440494E+07 -0.1146144E-02 -0.7453948E-03
  0.1000000E+00  0.1097097E+07 -0.3259139E+06 -0.3020769E-02  0.6739048E-03  0.1552433E-01 -0.4975988E-03  0.1070574E-03  0.6745505E-04  0.3567642E+07 -0.1423789E+07 -0.1146144E-02 -0.7370408E-03
  0.2000000E+00  0.1097097E+07 -0.3150113E+06 -0.3020769E-02  0.6491677E-03  0.1552433E-01 -0.4934214E-03  0.1070574E-03  0.3421088E-04  0.3567642E+07 -0.1374115E+07 -0.1146144E-02 -0.7121802E-03
  0.3000000E+00  0.1097097E+07 -0.2971503E+06 -0.3020769E-02  0.6087461E-03  0.1552433E-01 -0.4865266E-03  0.1070574E-03 -0.1937946E-04  0.3567642E+07 -0.1292781E+07 -0.1146144E-02 -0.6714105E-03
  0.4000000E+00  0.1097097E+07 -0.2727862E+06 -0.3020769E-02  0.5538241E-03  0.1552433E-01 -0.4770155E-03  0.1070574E-03 -0.9066283E-04  0.3567642E+07 -0.1181929E+07 -0.1146144E-02 -0.6157122E-03
  0.5000000E+00  0.1097097E+07 -0.2425389E+06 -0.3020769E-02  0.4860036E-03  0.1552433E-01 -0.4650269E-03  0.1070574E-03 -0.1760691E-03  0.3567642E+07 -0.1044470E+07 -0.1146144E-02 -0.5464225E-03
  0.6000000E+00  0.1097097E+07 -0.2071745E+06 -0.3020769E-02  0.4072544E-03  0.1552433E-01 -0.4507360E-03  0.1070574E-03 -0.2712462E-03  0.3567642E+07 -0.8839991E+06 -0.1146144E-02 -0.4652014E-03
  0.7000000E+00  0.1097097E+07 -0.1675849E+06 -0.3020769E-02  0.3198490E-03  0.1552433E-01 -0.4343512E-03  0.1070574E-03 -0.3712301E-03  0.3567642E+07 -0.7046956E+06 -0.1146144E-02 -0.3739907E-03
  0.8000000E+00  0.1097097E+07 -0.1247620E+06 -0.3020769E-02  0.2262901E-03  0.1552433E-01 -0.4161111E-03  0.1070574E-03 -0.4706346E-03  0.3567642E+07 -0.5112011E+06 -0.1146144E-02 -0.2749642E-03
  0.9000000E+00  0.1097097E+07 -0.7977055E+05 -0.3020769E-02  0.1292295E-03  0.1552433E-01 -0.3962813E-03  0.1070574E-03 -0.5638656E-03  0.3567642E+07 -0.3084884E+06 -0.1146144E-02 -0.1704736E-03
  0.1000000E+01  0.1097097E+07 -0.3371891E+05 -0.3020769E-02  0.3138429E-04  0.1552433E-01 -0.3751497E-03  0.1070574E-03 -0.6453406E-03  0.3567642E+07 -0.1017204E+06 -0.1146144E-02 -0.6298973E-04
  0.1100000E+01  0.1097097E+07  0.1227182E+05 -0.3020769E-02 -0.6455001E-04  0.1552433E-01 -0.3530225E-03  0.1070574E-03 -0.7097147E-03  0.3567642E+07  0.1038949E+06 -0.1146144E-02  0.4495953E-04
  0.1200000E+01  0.1097097E+07  0.5709773E+05 -0.3020769E-02 -0.1559833E-03  0.1552433E-01 -0.3302187E-03  0.1070574E-03 -0.7521007E-03  0.3567642E+07  0.3032492E+06 -0.1146144E-02  0.1508514E-03
  0.1300000E+01  0.1097097E+07  0.9970205E+05 -0.3020769E-02 -0.2405116E-03  0.1552433E-01 -0.3070664E-03  0.1070574E-03 -0.7682749E-03  0.3567642E+07  0.4914754E+06 -0.1146144E-02  0.2522303E-03
  0.1400000E+01  0.1097097E+07  0.1391028E+06 -0.3020769E-02 -0.3159894E-03  0.1552433E-01 -0.2838957E-03  0.1070574E-03 -0.7548640E-03  0.3567642E+07  0.6640780E+06 -0.1146144E-02  0.3467680E-03
  0.1500000E+01  0.1097097E+07  0.1744185E+06 -0.3020769E-02 -0.3805943E-03  0.1552433E-01 -0.2610347E-03  0.1070574E-03 -0.7095068E-03  0.3567642E+07  0.8170554E+06 -0.1146144E-02  0.4323194E-03
  0.1600000E+01  0.1097097E+07  0.2048905E+06 -0.3020769E-02 -0.4328777E-03  0.1552433E-01 -0.2388040E-03  0.1070574E-03 -0.6309769E-03  0.3567642E+07  0.9470012E+06 -0.1146144E-02  0.5069748E-03
  0.1700000E+01  0.1097097E+07  0.2299005E+06 -0.3020769E-02 -0.4718050E-03  0.1552433E-01 -0.2175103E-03  0.1070574E-03 -0.5192745E-03  0.3567642E+07  0.1051191E+07 -0.1146144E-02  0.5691026E-03
  0.1800000E+01  0.1097097E+07  0.2489859E+06 -0.3020769E-02 -0.4967793E-03  0.1552433E-01 -0.1974416E-03  0.1070574E-03 -0.3756699E-03  0.3567642E+07  0.1127645E+07 -0.1146144E-02  0.6173889E-03
  0.1900000E+01  0.1097097E+07  0.2618484E+06 -0.3020769E-02 -0.5076505E-03  0.1552433E-01 -0.1788627E-03  0.1070574E-03 -0.2027074E-03  0.3567642E+07  0.1175170E+07 -0.1146144E-02  0.6508639E-03
  0.2000000E+01  0.1097097E+07  0.2683590E+06 -0.3020769E-02 -0.5047108E-03  0.1552433E-01 -0.1620092E-03  0.1070574E-03 -0.4162429E-05  0.3567642E+07  0.1193377E+07 -0.1146144E-02  0.6689248E-03
  0.2100000E+01  0.1097097E+07  0.2685572E+06 -0.3020769E-02 -0.4886726E-03  0.1552433E-01 -0.1470837E-03  0.1070574E-03  0.2150444E-03  0.3567642E+07  0.1182675E+07 -0.1146144E-02  0.6713435E-03
  0.2200000E+01  0.1097097E+07  0.2626462E+06 -0.3020769E-02 -0.4606355E-03  0.1552433E-01 -0.1342518E-03  0.1070574E-03  0.4489771E-03  0.3567642E+07  0.1144240E+07 -0.1146144E-02  0.6582694E-03
  0.2300000E+01  0.1097097E+07  0.2509831E+06 -0.3020769E-02 -0.4220388E-03  0.1552433E-01 -0.1236373E-03  0.1070574E-03  0.6908510E-03  0.3567642E+07  0.1079965E+07 -0.1146144E-02  0.6302201E-03
  0.2400000E+01  0.1097097E+07  0.2340645E+06 -0.3020769E-02 -0.3746038E-03  0.1552433E-01 -0.1153208E-03  0.1070574E-03  0.9332340E-03  0.3567642E+07  0.9923881E+06 -0.1146144E-02  0.5880636E-03
  0.2500000E+01  0.1097097E+07  0.2125094E+06 -0.3020769E-02 -0.3202687E-03  0.1552433E-01 -0.1093364E-03  0.1070574E-03  0.1168273E-02  0.3567642E+07  0.8846035E+06 -0.1146144E-02  0.5329936E-03
  0.2600000E+01  0.1097097E+07  0.1870381E+06 -0.3020769E-02 -0.2611155E-03  0.1552433E-01 -0.1056697E-03  0.1070574E-03  0.1387946E-02  0.3567642E+07  0.7601564E+06 -0.1146144E-02  0.4664935E-03
  0.2700000E+01  0.1097097E+07  0.1584492E+06 -0.3020769E-02 -0.1992962E-03  0.1552433E-01 -0.1042586E-03  0.1070574E-03  0.1584316E-02  0.3567642E+07  0.6229319E+06 -0.1146144E-02  0.3902986E-03
  0.2800000E+01  0.1097097E+07  0.1275946E+06 -0.3020769E-02 -0.1369550E-03  0.1552433E-01 -0.1049904E-03  0.1070574E-03  0.1749804E-02  0.3567642E+07  0.4770312E+06 -0.1146144E-02  0.3063476E-03
  0.2900000E+01  0.1097097E+07  0.9535359E+05 -0.3020769E-02 -0.7615580E-04  0.1552433E-01 -0.1077055E-03  0.1070574E-03  0.1877445E-02  0.3567642E+07  0.3266462E+06 -0.1146144E-02  0.2167336E-03
  0.3000000E+01  0.1097097E+07  0.6260794E+05 -0.3020769E-02 -0.1881228E-04  0.1552433E-01 -0.1121968E-03  0.1070574E-03  0.1961138E-02  0.3567642E+07  0.1759381E+06 -0.1146144E-02  0.1236509E-03
  0.3100000E+01  0.1097097E+07  0.3021590E+05 -0.3020769E-02  0.3337414E-04  0.1552433E-01 -0.1182144E-03  0.1070574E-03  0.1995864E-02  0.3567642E+07  0.2891411E+05 -0.1146144E-02  0.2933861E-04
  0.3200000E+01  0.1097097E+07 -0.1010682E+04 -0.3020769E-02  0.7896782E-04  0.1552433E-01 -0.1254660E-03  0.1070574E-03  0.1977894E-02  0.3567642E+07 -0.1106816E+06 -0.1146144E-02 -0.6397135E-04
  0.3300000E+01  0.1097097E+07 -0.3032825E+05 -0.3020769E-02  0.1168411E-03  0.1552433E-01 -0.1336242E-03  0.1070574E-03  0.1904945E-02  0.3567642E+07 -0.2394704E+06 -0.1146144E-02 -0.1541105E-03
  0.3400000E+01  0.1097097E+07 -0.5708006E+05 -0.3020769E-02  0.1462036E-03  0.1552433E-01 -0.1423306E-03  0.1070574E-03  0.1776294E-02  0.3567642E+07 -0.3545243E+06 -0.1146144E-02 -0.2390238E-03
  0.3500000E+01  0.1097097E+07 -0.8071138E+05 -0.3020769E-02  0.1666199E-03  0.1552433E-01 -0.1512007E-03  0.1070574E-03  0.1592859E-02  0.3567642E+07 -0.4534362E+06 -0.1146144E-02 -0.3168161E-03
  0.3600000E+01  0.1097097E+07 -0.1007819E+06 -0.3020769E-02  0.1780129E-03  0.1552433E-01 -0.1598314E-03  0.1070574E-03  0.1357215E-02  0.3567642E+07 -0.5343717E+06 -0.1146144E-02 -0.3857952E-03
  0.3700000E+01  0.1097097E+07 -0.1169730E+06 -0.3020769E-02  0.1806536E-03  0.1552433E-01 -0.1678080E-03  0.1070574E-03  0.1073573E-02  0.3567642E+07 -0.5961010E+06 -0.1146144E-02 -0.4445080E-03
  0.3800000E+01  0.1097097E+07 -0.1290925E+06 -0.3020769E-02  0.1751390E-03  0.1552433E-01 -0.1747124E-03  0.1070574E-03  0.7476936E-03  0.3567642E+07 -0.6380124E+06 -0.1146144E-02 -0.4917699E-03
  0.3900000E+01  0.1097097E+07 -0.1370741E+06 -0.3020769E-02  0.1623577E-03  0.1552433E-01 -0.1801297E-03  0.1070574E-03  0.3867647E-03  0.3567642E+07 -0.6601044E+06 -0.1146144E-02 -0.5266870E-03
  0.4000000E+01  0.1097097E+07 -0.1409735E+06 -0.3020769E-02  0.1434454E-03  0.1552433E-01 -0.1836582E-03  0.1070574E-03 -0.7740427E-06  0.3567642E+07 -0.6629601E+06 -0.1146144E-02 -0.5486711E-03
  0.4100000E+01  0.1097097E+07 -0.1409612E+06 -0.3020769E-02  0.1197326E-03  0.1552433E-01 -0.1849165E-03  0.1070574E-03 -0.4054521E-03  0.3567642E+07 -0.6477038E+06 -0.1146144E-02 -0.5574467E-03
  0.4200000E+01  0.1097097E+07 -0.1373117E+06 -0.3020769E-02  0.9268499E-04  0.1552433E-01 -0.1835518E-03  0.1070574E-03 -0.8170170E-03  0.3567642E+07 -0.6159426E+06 -0.1146144E-02 -0.5530496E-03
  0.4300000E+01  0.1097097E+07 -0.1303898E+06 -0.3020769E-02  0.6384221E-04  0.1552433E-01 -0.1792487E-03  0.1070574E-03 -0.1224710E-02  0.3567642E+07 -0.5696949E+06 -0.1146144E-02 -0.5358206E-03
  0.4400000E+01  0.1097097E+07 -0.1206350E+06 -0.3020769E-02  0.3475261E-04  0.1552433E-01 -0.1717362E-03  0.1070574E-03 -0.1617574E-02  0.3567642E+07 -0.5113076E+06 -0.1146144E-02 -0.5063870E-03
  0.4500000E+01  0.1097097E+07 -0.1085438E+06 -0.3020769E-02  0.6910369E-05  0.1552433E-01 -0.1607941E-03  0.1070574E-03 -0.1984763E-02  0.3567642E+07 -0.4433669E+06 -0.1146144E-02 -0.4656438E-03
  0.4600000E+01  0.1097097E+07 -0.9465149E+05 -0.3020769E-02 -0.1830377E-04  0.1552433E-01 -0.1462594E-03  0.1070574E-03 -0.2315855E-02  0.3567642E+07 -0.3686053E+06 -0.1146144E-02 -0.4147243E-03
  0.4700000E+01  0.1097097E+07 -0.7951308E+05 -0.3020769E-02 -0.3967630E-04  0.1552433E-01 -0.1280323E-03  0.1070574E-03 -0.2601160E-02  0.3567642E+07 -0.2898062E+06 -0.1146144E-02 -0.3549679E-03
  0.4800000E+01  0.1097097E+07 -0.6368482E+05 -0.3020769E-02 -0.5620752E-04  0.1552433E-01 -0.1060780E-03  0.1070574E-03 -0.2832006E-02  0.3567642E+07 -0.2097135E+06 -0.1146144E-02 -0.2878852E-03
  0.4900000E+01  0.1097097E+07 -0.4770596E+05 -0.3020769E-02 -0.6714734E-04  0.1552433E-01 -0.8043127E-04  0.1070574E-03 -0.3001010E-02  0.3567642E+07 -0.1309426E+06 -0.1146144E-02 -0.2151160E-03
  0.5000000E+01  0.1097097E+07 -0.3208269E+05 -0.3020769E-02 -0.7202370E-04  0.1552433E-01 -0.5119774E-04  0.1070574E-03 -0.3102302E-02  0.3567642E+07 -0.5590186E+05 -0.1146144E-02 -0.1383902E-03
  0.5100000E+01  0.1097097E+07 -0.1727331E+05 -0.3020769E-02 -0.7065479E-04  0.1552433E-01 -0.1855287E-04  0.1070574E-03 -0.3131719E-02  0.3567642E+07  0.1327590E+05 -0.1146144E-02 -0.5948457E-04
  0.5200000E+01  0.1097097E+07 -0.3676128E+04 -0.3020769E-02 -0.6315346E-04  0.1552433E-01  0.1726036E-04  0.1070574E-03 -0.3086944E-02  0.3567642E+07  0.7478971E+05 -0.1146144E-02  0.1981847E-04
  0.5300000E+01  0.1097097E+07  0.8380250E+04 -0.3020769E-02 -0.4991762E-04  0.1552433E-01  0.5593253E-04  0.1070574E-03 -0.2967601E-02  0.3567642E+07  0.1272138E+06 -0.1146144E-02  0.9777082E-04
  0.5400000E+01  0.1097097E+07  0.1864381E+05 -0.3020769E-02 -0.3160992E-04  0.1552433E-01  0.9709365E-04  0.1070574E-03 -0.2775287E-02  0.3567642E+07  0.1695256E+06 -0.1146144E-02  0.1726979E-03
  0.5500000E+01  0.1097097E+07  0.2694310E+05 -0.3020769E-02 -0.9127028E-05  0.1552433E-01  0.1403196E-03  0.1070574E-03 -0.2513550E-02  0.3567642E+07  0.2011202E+06 -0.1146144E-02  0.2430350E-03
  0.5600000E+01  0.1097097E+07  0.3318798E+05 -0.3020769E-02  0.1644187E-04  0.1552433E-01  0.1851395E-03  0.1070574E-03 -0.2187820E-02  0.3567642E+07  0.2218065E+06 -0.1146144E-02  0.3073559E-03
  0.5700000E+01  0.1097097E+07  0.3736785E+05 -0.3020769E-02  0.4386086E-04  0.1552433E-01  0.2310434E-03  0.1070574E-03 -0.1805267E-02  0.3567642E+07  0.2317927E+06 -0.1146144E-02  0.3644031E-03
  0.5800000E+01  0.1097097E+07  0.3954697E+05 -0.3020769E-02  0.7180099E-04  0.1552433E-01  0.2774931E-03  0.1070574E-03 -0.1374634E-02  0.3567642E+07  0.2316567E+06 -0.1146144E-02  0.4131084E-03
  0.5900000E+01  0.1097097E+07  0.3985751E+05 -0.3020769E-02  0.9889788E-04  0.1552433E-01  0.3239323E-03  0.1070574E-03 -0.9059957E-03  0.3567642E+07  0.2223051E+06 -0.1146144E-02  0.4526110E-03
  0.6000000E+01  0.1097097E+07  0.3849050E+05 -0.3020769E-02  0.1238089E-03  0.1552433E-01  0.3697981E-03  0.1070574E-03 -0.4105003E-03  0.3567642E+07  0.2049225E+06 -0.1146144E-02  0.4822685E-03
  0.6100000E+01  0.1097097E+07  0.3568515E+05 -0.3020769E-02  0.1452690E-03  0.1552433E-01  0.4145316E-03  0.1070574E-03  0.9993064E-04  0.3567642E+07  0.1809134E+06 -0.1146144E-02  0.5016654E-03
  0.6200000E+01  0.1097097E+07  0.3171683E+05 -0.3020769E-02  0.1621462E-03  0.1552433E-01  0.4575907E-03  0.1070574E-03  0.6129234E-03  0.3567642E+07  0.1518382E+06 -0.1146144E-02  0.5106117E-03
  0.6300000E+01  0.1097097E+07  0.2688480E+05 -0.3020769E-02  0.1734871E-03  0.1552433E-01  0.4984601E-03  0.1070574E-03  0.1115979E-02  0.3567642E+07  0.1193476E+06 -0.1146144E-02  0.5091410E-03
  0.6400000E+01  0.1097097E+07  0.2149906E+05 -0.3020769E-02  0.1785602E-03  0.1552433E-01  0.5366632E-03  0.1070574E-03  0.1596827E-02  0.3567642E+07  0.8511560E+05 -0.1146144E-02  0.4975003E-03
  0.6500000E+01  0.1097097E+07  0.1586786E+05 -0.3020769E-02  0.1768858E-03  0.1552433E-01  0.5717704E-03  0.1070574E-03  0.2043741E-02  0.3567642E+07  0.5077450E+05 -0.1146144E-02  0.4761385E-03
  0.6600000E+01  0.1097097E+07  0.1028585E+05 -0.3020769E-02  0.1682594E-03  0.1552433E-01  0.6034094E-03  0.1070574E-03  0.2445866E-02  0.3567642E+07  0.1785534E+05 -0.1146144E-02  0.4456882E-03
  0.6700000E+01  0.1097097E+07  0.5023325E+04 -0.3020769E-02  0.1527616E-03  0.1552433E-01  0.6312733E-03  0.1070574E-03  0.2793509E-02  0.3567642E+07 -0.1226534E+05 -0.1146144E-02  0.4069465E-03
  0.6800000E+01  0.1097097E+07  0.3169229E+03 -0.3020769E-02  0.1307587E-03  0.1552433E-01  0.6551225E-03  0.1070574E-03  0.3078390E-02  0.3567642E+07 -0.3841131E+05 -0.1146144E-02  0.3608516E-03
  0.6900000E+01  0.1097097E+07 -0.3638102E+04 -0.3020769E-02  0.1028905E-03  0.1552433E-01  0.6747919E-03  0.1070574E-03  0.3293869E-02  0.3567642E+07 -0.5964311E+05 -0.1146144E-02  0.3084575E-03
  0.7000000E+01  0.1097097E+07 -0.6693378E+04 -0.3020769E-02  0.7004847E-04  0.1552433E-01  0.6901940E-03  0.1070574E-03  0.3435115E-02  0.3567642E+07 -0.7528297E+05 -0.1146144E-02  0.2509097E-03
  0.7100000E+01  0.1097097E+07 -0.8751000E+04 -0.3020769E-02  0.3334349E-04  0.1552433E-01  0.7013137E-03  0.1070574E-03  0.3499223E-02  0.3567642E+07 -0.8492906E+05 -0.1146144E-02  0.1894169E-03
  0.7200000E+01  0.1097097E+07 -0.9764966E+04 -0.3020769E-02 -0.5936045E-05  0.1552433E-01  0.7082117E-03  0.1070574E-03  0.3485279E-02  0.3567642E+07 -0.8845938E+05 -0.1146144E-02  0.1252231E-03
  0.7300000E+01  0.1097097E+07 -0.9740334E+04 -0.3020769E-02 -0.4637083E-04  0.1552433E-01  0.7110162E-03  0.1070574E-03  0.3394372E-02  0.3567642E+07 -0.8602305E+05 -0.1146144E-02  0.5958540E-04
  0.7400000E+01  0.1097097E+07 -0.8730655E+04 -0.3020769E-02 -0.8646546E-04  0.1552433E-01  0.7099177E-03  0.1070574E-03  0.3229541E-02  0.3567642E+07 -0.7802317E+05 -0.1146144E-02 -0.6255661E-05
  0.7500000E+01  0.1097097E+07 -0.6833383E+04 -0.3020769E-02 -0.1247041E-03  0.1552433E-01  0.7051644E-03  0.1070574E-03  0.2995676E-02  0.3567642E+07 -0.6508878E+05 -0.1146144E-02 -0.7109714E-04
  0.7600000E+01  0.1097097E+07 -0.4183754E+04 -0.3020769E-02 -0.1596099E-03  0.1552433E-01  0.6970470E-03  0.1070574E-03  0.2699362E-02  0.3567642E+07 -0.4804080E+05 -0.1146144E-02 -0.1337950E-03
  0.7700000E+01  0.1097097E+07 -0.9475308E+03 -0.3020769E-02 -0.1897993E-03  0.1552433E-01  0.6858904E-03  0.1070574E-03  0.2348679E-02  0.3567642E+07 -0.2785031E+05 -0.1146144E-02 -0.1932860E-03
  0.7800000E+01  0.1097097E+07  0.2687573E+04 -0.3020769E-02 -0.2140367E-03  0.1552433E-01  0.6720428E-03  0.1070574E-03  0.1952967E-02  0.3567642E+07 -0.5592217E+04 -0.1146144E-02 -0.2485992E-03
  0.7900000E+01  0.1097097E+07  0.6520581E+04 -0.3020769E-02 -0.2312840E-03  0.1552433E-01  0.6558594E-03  0.1070574E-03  0.1522541E-02  0.3567642E+07  0.1760215E+05 -0.1146144E-02 -0.2988747E-03
  0.8000000E+01  0.1097097E+07  0.1034655E+05 -0.3020769E-02 -0.2407386E-03  0.1552433E-01  0.6376942E-03  0.1070574E-03  0.1068412E-02  0.3567642E+07  0.4059429E+05 -0.1146144E-02 -0.3433711E-03
  0.8100000E+01  0.1097097E+07  0.1396543E+05 -0.3020769E-02 -0.2418689E-03  0.1552433E-01  0.6178828E-03  0.1070574E-03  0.6019530E-03  0.3567642E+07  0.6228594E+05 -0.1146144E-02 -0.3814749E-03
  0.8200000E+01  0.1097097E+07  0.1719062E+05 -0.3020769E-02 -0.2344353E-03  0.1552433E-01  0.5967325E-03  0.1070574E-03  0.1346086E-03  0.3567642E+07  0.8166345E+05 -0.1146144E-02 -0.4127044E-03
  0.8300000E+01  0.1097097E+07  0.1985676E+05 -0.3020769E-02 -0.2185021E-03  0.1552433E-01  0.5745108E-03  0.1070574E-03 -0.3224528E-03  0.3567642E+07  0.9783821E+05 -0.1146144E-02 -0.4367121E-03
  0.8400001E+01  0.1097097E+07  0.2182611E+05 -0.3020769E-02 -0.1944394E-03  0.1552433E-01  0.5514345E-03  0.1070574E-03 -0.7586071E-03  0.3567642E+07  0.1100791E+06 -0.1146144E-02 -0.4532842E-03
  0.8500000E+01  0.1097097E+07  0.2299384E+05 -0.3020769E-02 -0.1629115E-03  0.1552433E-01  0.5276629E-03  0.1070574E-03 -0.1164074E-02  0.3567642E+07  0.1178390E+06 -0.1146144E-02 -0.4623377E-03
  0.8600000E+01  0.1097097E+07  0.2329195E+05 -0.3020769E-02 -0.1248555E-03  0.1552433E-01  0.5032906E-03  0.1070574E-03 -0.1530170E-02  0.3567642E+07  0.1207736E+06 -0.1146144E-02 -0.4639149E-03
  0.8700000E+01  0.1097097E+07  0.2269121E+05 -0.3020769E-02 -0.8145186E-04  0.1552433E-01  0.4783451E-03  0.1070574E-03 -0.1849507E-02  0.3567642E+07  0.1187501E+06 -0.1146144E-02 -0.4581764E-03
  0.8800000E+01  0.1097097E+07  0.2120182E+05 -0.3020769E-02 -0.3408170E-04  0.1552433E-01  0.4527837E-03  0.1070574E-03 -0.2116178E-02  0.3567642E+07  0.1118481E+06 -0.1146144E-02 -0.4453926E-03
  0.8900001E+01  0.1097097E+07  0.1887218E+05 -0.3020769E-02  0.1571827E-04  0.1552433E-01  0.4264991E-03  0.1070574E-03 -0.2325870E-02  0.3567642E+07  0.1003521E+06 -0.1146144E-02 -0.4259347E-03
  0.9000000E+01  0.1097097E+07  0.1578631E+05 -0.3020769E-02  0.6631034E-04  0.1552433E-01  0.3993204E-03  0.1070574E-03 -0.2475946E-02  0.3567642E+07  0.8473568E+05 -0.1146144E-02 -0.4002604E-03
  0.9100000E+01  0.1097097E+07  0.1205965E+05 -0.3020769E-02  0.1160137E-03  0.1552433E-01  0.3710217E-03  0.1070574E-03 -0.2565469E-02  0.3567642E+07  0.6563744E+05 -0.1146144E-02 -0.3689087E-03
  0.9200000E+01  0.1097097E+07  0.7834051E+04 -0.3020769E-02  0.1631600E-03  0.1552433E-01  0.3413320E-03  0.1070574E-03 -0.2595172E-02  0.3567642E+07  0.4383340E+05 -0.1146144E-02 -0.3324819E-03
  0.9300000E+01  0.1097097E+07  0.3271244E+04 -0.3020769E-02  0.2061546E-03  0.1552433E-01  0.3099465E-03  0.1070574E-03 -0.2567377E-02  0.3567642E+07  0.2020152E+05 -0.1146144E-02 -0.2916371E-03
  0.9400001E+01  0.1097097E+07 -0.1453716E+04 -0.3020769E-02  0.2435295E-03  0.1552433E-01  0.2765440E-03  0.1070574E-03 -0.2485879E-02  0.3567642E+07 -0.4314392E+04 -0.1146144E-02 -0.2470714E-03
  0.9500000E+01  0.1097097E+07 -0.6159935E+04 -0.3020769E-02  0.2739959E-03  0.1552433E-01  0.2408003E-03  0.1070574E-03 -0.2355780E-02  0.3567642E+07 -0.2874440E+05 -0.1146144E-02 -0.1995168E-03
  0.9600000E+01  0.1097097E+07 -0.1066836E+05 -0.3020769E-02  0.2964891E-03  0.1552433E-01  0.2024036E-03  0.1070574E-03 -0.2183288E-02  0.3567642E+07 -0.5213327E+05 -0.1146144E-02 -0.1497201E-03
  0.9700000E+01  0.1097097E+07 -0.1480837E+05 -0.3020769E-02  0.3102018E-03  0.1552433E-01  0.1610805E-03  0.1070574E-03 -0.1975495E-02  0.3567642E+07 -0.7357575E+05 -0.1146144E-02 -0.9844128E-04
  0.9800000E+01  0.1097097E+07 -0.1842514E+05 -0.3020769E-02  0.3146160E-03  0.1552433E-01  0.1166033E-03  0.1070574E-03 -0.1740119E-02  0.3567642E+07 -0.9225498E+05 -0.1146144E-02 -0.4643614E-04
  0.9900001E+01  0.1097097E+07 -0.2138520E+05 -0.3020769E-02  0.3095167E-03  0.1552433E-01  0.6881518E-04  0.1070574E-03 -0.1485249E-02  0.3567642E+07 -0.1074712E+06 -0.1146144E-02  0.5546177E-05
Zone t="DoF    2",I=   100,F=POINT
  0.0000000E+00  0.4815342E-02 -0.3939489E-03  0.1097097E+07 -0.3295793E+06 -0.2262358E-03  0.1602962E-03 -0.3567642E+07  0.1440494E+07 -0.7107437E-02  0.8936829E-03  0.9469070E-02 -0.5430229E-02
  0.1000000E+00  0.4815342E-02 -0.3855794E-03  0.1097097E+07 -0.3259139E+06 -0.2262358E-03  0.1590264E-03 -0.3567642E+07  0.1423789E+07 -0.7107437E-02  0.8704956E-03  0.9469070E-02 -0.5369650E-02
  0.2000000E+00  0.4815342E-02 -0.3607956E-03  0.1097097E+07 -0.3150113E+06 -0.2262358E-03  0.1552372E-03 -0.3567642E+07  0.1374114E+07 -0.7107437E-02  0.8018635E-03  0.9469070E-02 -0.5189442E-02
  0.3000000E+00  0.4815342E-02 -0.3205589E-03  0.1097097E+07 -0.2971503E+06 -0.2262358E-03  0.1489891E-03 -0.3567642E+07  0.1292781E+07 -0.7107437E-02  0.6905385E-03  0.9469070E-02 -0.4894153E-02
  0.4000000E+00  0.4815342E-02 -0.2664324E-03  0.1097097E+07 -0.2727862E+06 -0.2262358E-03  0.1403819E-03 -0.3567642E+07  0.1181929E+07 -0.7107437E-02  0.5409982E-03  0.9469070E-02 -0.4491217E-02
  0.5000000E+00  0.4815342E-02 -0.2005232E-03  0.1097097E+07 -0.2425389E+06 -0.2262358E-03  0.1295525E-03 -0.3567642E+07  0.1044470E+07 -0.7107437E-02  0.3592822E-03  0.9469070E-02 -0.3990755E-02
  0.6000000E+00  0.4815342E-02 -0.1254047E-03  0.1097097E+07 -0.2071745E+06 -0.2262358E-03  0.1166733E-03 -0.3567642E+07  0.8839991E+06 -0.7107437E-02  0.1527717E-03  0.9469070E-02 -0.3405285E-02
  0.7000000E+00  0.4815342E-02 -0.4402110E-04  0.1097097E+07 -0.1675849E+06 -0.2262358E-03  0.1019483E-03 -0.3567642E+07  0.7046956E+06 -0.7107437E-02 -0.7007695E-04  0.9469070E-02 -0.2749378E-02
  0.8000000E+00  0.4815342E-02  0.4042085E-04  0.1097097E+07 -0.1247620E+06 -0.2262358E-03  0.8561037E-04 -0.3567642E+07  0.5112010E+06 -0.7107437E-02 -0.3000431E-03  0.9469070E-02 -0.2039254E-02
  0.9000000E+00  0.4815342E-02  0.1245717E-03  0.1097097E+07 -0.7977055E+05 -0.2262358E-03  0.6791703E-04 -0.3567642E+07  0.3084884E+06 -0.7107437E-02 -0.5274790E-03  0.9469070E-02 -0.1292341E-02
  0.1000000E+01  0.4815342E-02  0.2050630E-03  0.1097097E+07 -0.3371891E+05 -0.2262358E-03  0.4914599E-04 -0.3567642E+07  0.1017205E+06 -0.7107437E-02 -0.7426657E-03  0.9469070E-02 -0.5267965E-03
  0.1100000E+01  0.4815342E-02  0.2786340E-03  0.1097097E+07  0.1227182E+05 -0.2262358E-03  0.2959076E-04 -0.3567642E+07 -0.1038948E+06 -0.7107437E-02 -0.9361752E-03  0.9469070E-02  0.2389859E-03
  0.1200000E+01  0.4815342E-02  0.3422541E-03  0.1097097E+07  0.5709773E+05 -0.2262358E-03  0.9555674E-05 -0.3567642E+07 -0.3032492E+06 -0.7107437E-02 -0.1099223E-02  0.9469070E-02  0.9868618E-03
  0.1300000E+01  0.4815342E-02  0.3932367E-03  0.1097097E+07  0.9970202E+05 -0.2262358E-03 -0.1064891E-04 -0.3567642E+07 -0.4914752E+06 -0.7107437E-02 -0.1224004E-02  0.9469070E-02  0.1699418E-02
  0.1400000E+01  0.4815342E-02  0.4293429E-03  0.1097097E+07  0.1391028E+06 -0.2262358E-03 -0.3071154E-04 -0.3567642E+07 -0.6640779E+06 -0.7107437E-02 -0.1303994E-02  0.9469070E-02  0.2360419E-02
  0.1500000E+01  0.4815342E-02  0.4488680E-03  0.1097097E+07  0.1744186E+06 -0.2262358E-03 -0.5032465E-04 -0.3567642E+07 -0.8170553E+06 -0.7107437E-02 -0.1334207E-02  0.9469070E-02  0.2955226E-02
  0.1600000E+01  0.4815342E-02  0.4507104E-03  0.1097097E+07  0.2048904E+06 -0.2262358E-03 -0.6918897E-04 -0.3567642E+07 -0.9470012E+06 -0.7107437E-02 -0.1311413E-02  0.9469070E-02  0.3471145E-02
  0.1700000E+01  0.4815342E-02  0.4344173E-03  0.1097097E+07  0.2299004E+06 -0.2262358E-03 -0.8701829E-04 -0.3567642E+07 -0.1051191E+07 -0.7107437E-02 -0.1234274E-02  0.9469070E-02  0.3897734E-02
  0.1800000E+01  0.4815342E-02  0.4002088E-03  0.1097097E+07  0.2489859E+06 -0.2262358E-03 -0.1035433E-03 -0.3567642E+07 -0.1127644E+07 -0.7107437E-02 -0.1103440E-02  0.9469070E-02  0.4227024E-02
  0.1900000E+01  0.4815342E-02  0.3489776E-03  0.1097097E+07  0.2618484E+06 -0.2262358E-03 -0.1185157E-03 -0.3567642E+07 -0.1175170E+07 -0.7107437E-02 -0.9215600E-03  0.9469070E-02  0.4453683E-02
  0.2000000E+01  0.4815342E-02  0.2822632E-03  0.1097097E+07  0.2683590E+06 -0.2262358E-03 -0.1317114E-03 -0.3567642E+07 -0.1193377E+07 -0.7107437E-02 -0.6932262E-03  0.9469070E-02  0.4575093E-02
  0.2100000E+01  0.4815342E-02  0.2022052E-03  0.1097097E+07  0.2685572E+06 -0.2262358E-03 -0.1429332E-03 -0.3567642E+07 -0.1182675E+07 -0.7107437E-02 -0.4248562E-03  0.9469070E-02  0.4591336E-02
  0.2200000E+01  0.4815342E-02  0.1114720E-03  0.1097097E+07  0.2626462E+06 -0.2262358E-03 -0.1520139E-03 -0.3567642E+07 -0.1144240E+07 -0.7107437E-02 -0.1245043E-03  0.9469070E-02  0.4505144E-02
  0.2300000E+01  0.4815342E-02  0.1317138E-04  0.1097097E+07  0.2509831E+06 -0.2262358E-03 -0.1588177E-03 -0.3567642E+07 -0.1079965E+07 -0.7107437E-02  0.1983858E-03  0.9469070E-02  0.4321725E-02
  0.2400000E+01  0.4815342E-02 -0.8925544E-04  0.1097097E+07  0.2340645E+06 -0.2262358E-03 -0.1632420E-03 -0.3567642E+07 -0.9923882E+06 -0.7107437E-02  0.5332796E-03  0.9469070E-02  0.4048571E-02
  0.2500000E+01  0.4815342E-02 -0.1921512E-03  0.1097097E+07  0.2125094E+06 -0.2262358E-03 -0.1652183E-03 -0.3567642E+07 -0.8846034E+06 -0.7107437E-02  0.8688854E-03  0.9469070E-02  0.3695174E-02
  0.2600000E+01  0.4815342E-02 -0.2917727E-03  0.1097097E+07  0.1870381E+06 -0.2262358E-03 -0.1647129E-03 -0.3567642E+07 -0.7601564E+06 -0.7107437E-02  0.1193535E-02  0.9469070E-02  0.3272713E-02
  0.2700000E+01  0.4815342E-02 -0.3844184E-03  0.1097097E+07  0.1584492E+06 -0.2262358E-03 -0.1617268E-03 -0.3567642E+07 -0.6229321E+06 -0.7107437E-02  0.1495564E-02  0.9469070E-02  0.2793702E-02
  0.2800000E+01  0.4815342E-02 -0.4665631E-03  0.1097097E+07  0.1275946E+06 -0.2262358E-03 -0.1562954E-03 -0.3567642E+07 -0.4770313E+06 -0.7107437E-02  0.1763709E-02  0.9469070E-02  0.2271599E-02
  0.2900000E+01  0.4815342E-02 -0.5349818E-03  0.1097097E+07  0.9535359E+05 -0.2262358E-03 -0.1484879E-03 -0.3567642E+07 -0.3266463E+06 -0.7107437E-02  0.1987503E-02  0.9469070E-02  0.1720422E-02
  0.3000000E+01  0.4815342E-02 -0.5868669E-03  0.1097097E+07  0.6260795E+05 -0.2262358E-03 -0.1384065E-03 -0.3567642E+07 -0.1759383E+06 -0.7107437E-02  0.2157631E-02  0.9469070E-02  0.1154352E-02
  0.3100000E+01  0.4815342E-02 -0.6199314E-03  0.1097097E+07  0.3021591E+05 -0.2262358E-03 -0.1261840E-03 -0.3567642E+07 -0.2891419E+05 -0.7107437E-02  0.2266280E-02  0.9469070E-02  0.5873417E-03
  0.3200000E+01  0.4815342E-02 -0.6324939E-03  0.1097097E+07 -0.1010680E+04 -0.2262358E-03 -0.1119830E-03 -0.3567642E+07  0.1106816E+06 -0.7107437E-02  0.2307416E-02  0.9469070E-02  0.3276708E-04
  0.3300000E+01  0.4815342E-02 -0.6235458E-03  0.1097097E+07 -0.3032825E+05 -0.2262358E-03 -0.9599352E-04 -0.3567642E+07  0.2394702E+06 -0.7107437E-02  0.2277032E-02  0.9469070E-02 -0.4969172E-03
  0.3400000E+01  0.4815342E-02 -0.5927929E-03  0.1097097E+07 -0.5708005E+05 -0.2262358E-03 -0.7843061E-04 -0.3567642E+07  0.3545243E+06 -0.7107437E-02  0.2173321E-02  0.9469070E-02 -0.9904599E-03
  0.3500000E+01  0.4815342E-02 -0.5406745E-03  0.1097097E+07 -0.8071138E+05 -0.2262358E-03 -0.5953199E-04 -0.3567642E+07  0.4534360E+06 -0.7107437E-02  0.1996780E-02  0.9469070E-02 -0.1438054E-02
  0.3600000E+01  0.4815342E-02 -0.4683590E-03  0.1097097E+07 -0.1007819E+06 -0.2262358E-03 -0.3955510E-04 -0.3567642E+07  0.5343716E+06 -0.7107437E-02  0.1750244E-02  0.9469070E-02 -0.1831532E-02
  0.3700000E+01  0.4815342E-02 -0.3777109E-03  0.1097097E+07 -0.1169730E+06 -0.2262358E-03 -0.1877441E-04 -0.3567642E+07  0.5961009E+06 -0.7107437E-02  0.1438849E-02  0.9469070E-02 -0.2164494E-02
  0.3800000E+01  0.4815342E-02 -0.2712380E-03  0.1097097E+07 -0.1290925E+06 -0.2262358E-03  0.2521882E-05 -0.3567642E+07  0.6380122E+06 -0.7107437E-02  0.1069911E-02  0.9469070E-02 -0.2432387E-02
  0.3900000E+01  0.4815342E-02 -0.1520133E-03  0.1097097E+07 -0.1370741E+06 -0.2262358E-03  0.2403533E-04 -0.3567642E+07  0.6601043E+06 -0.7107437E-02  0.6527416E-03  0.9469070E-02 -0.2632525E-02
  0.4000000E+01  0.4815342E-02 -0.2358043E-04  0.1097097E+07 -0.1409735E+06 -0.2262358E-03  0.4546006E-04 -0.3567642E+07  0.6629601E+06 -0.7107437E-02  0.1983995E-03  0.9469070E-02 -0.2764049E-02
  0.4100000E+01  0.4815342E-02  0.1101594E-03  0.1097097E+07 -0.1409612E+06 -0.2262358E-03  0.6648721E-04 -0.3567642E+07  0.6477037E+06 -0.7107437E-02 -0.2806261E-03  0.9469070E-02 -0.2827846E-02
  0.4200000E+01  0.4815342E-02  0.2450726E-03  0.1097097E+07 -0.1373117E+06 -0.2262358E-03  0.8680828E-04 -0.3567642E+07  0.6159425E+06 -0.7107437E-02 -0.7707762E-03  0.9469070E-02 -0.2826417E-02
  0.4300000E+01  0.4815342E-02  0.3769248E-03  0.1097097E+07 -0.1303898E+06 -0.2262358E-03  0.1061186E-03 -0.3567642E+07  0.5696949E+06 -0.7107437E-02 -0.1257811E-02  0.9469070E-02 -0.2763704E-02
  0.4400000E+01  0.4815342E-02  0.5015197E-03  0.1097097E+07 -0.1206350E+06 -0.2262358E-03  0.1241221E-03 -0.3567642E+07  0.5113076E+06 -0.7107437E-02 -0.1727248E-02  0.9469070E-02 -0.2644897E-02
  0.4500000E+01  0.4815342E-02  0.6148341E-03  0.1097097E+07 -0.1085438E+06 -0.2262358E-03  0.1405347E-03 -0.3567642E+07  0.4433671E+06 -0.7107437E-02 -0.2164787E-02  0.9469070E-02 -0.2476201E-02
  0.4600000E+01  0.4815342E-02  0.7131496E-03  0.1097097E+07 -0.9465149E+05 -0.2262358E-03  0.1550885E-03 -0.3567642E+07  0.3686054E+06 -0.7107437E-02 -0.2556758E-02  0.9469070E-02 -0.2264613E-02
  0.4700000E+01  0.4815342E-02  0.7931732E-03  0.1097097E+07 -0.7951308E+05 -0.2262358E-03  0.1675361E-03 -0.3567642E+07  0.2898062E+06 -0.7107437E-02 -0.2890532E-02  0.9469070E-02 -0.2017664E-02
  0.4800000E+01  0.4815342E-02  0.8521435E-03  0.1097097E+07 -0.6368480E+05 -0.2262358E-03  0.1776540E-03 -0.3567642E+07  0.2097137E+06 -0.7107437E-02 -0.3154924E-02  0.9469070E-02 -0.1743192E-02
  0.4900000E+01  0.4815342E-02  0.8879246E-03  0.1097097E+07 -0.4770594E+05 -0.2262358E-03  0.1852470E-03 -0.3567642E+07  0.1309427E+06 -0.7107437E-02 -0.3340546E-02  0.9469070E-02 -0.1449105E-02