VARIABLES="X" "Y" "Z" "Module" "Phase" "Real" "Imag" "Re(NVEL)" "Im(NVEL)"
 ZONE t="Body",N=        1000 , E=         560  , F=FEPOINT,ET=QUADRILATERAL
   0.4755283E+01   0.1545085E+01  -0.1000000E+02   0.1227206E+00   0.1429090E+01   0.1733217E-01   0.1214905E+00  -0.3722726E-01
  -0.1543764E-01
   0.4755283E+01   0.1545085E+01  -0.9090909E+01   0.1786720E+00   0.1402721E+01   0.2988913E-01   0.1761543E+00  -0.5393180E-01
  -0.2236479E-01
   0.4755283E+01   0.1545085E+01  -0.8181818E+01   0.2611328E+00   0.1403585E+01   0.4346109E-01   0.2574908E+00  -0.7813201E-01
  -0.3240029E-01
   0.4755283E+01   0.1545085E+01  -0.7272727E+01   0.3764924E+00   0.1410302E+01   0.6016582E-01   0.3716539E+00  -0.1131913E+00
  -0.4693889E-01
   0.4755283E+01   0.1545085E+01  -0.6363636E+01   0.5452629E+00   0.1416567E+01   0.8376264E-01   0.5387908E+00  -0.1639823E+00
  -0.6800124E-01
   0.4755283E+01   0.1545085E+01  -0.5454545E+01   0.7903272E+00   0.1422681E+01   0.1166323E+00   0.7816738E+00  -0.2375641E+00
  -0.9851462E-01
   0.4755283E+01   0.1545085E+01  -0.4545455E+01   0.1148200E+01   0.1426400E+01   0.1652202E+00   0.1136251E+01  -0.3441634E+00
  -0.1427199E+00
   0.4755283E+01   0.1545085E+01  -0.3636364E+01   0.1665884E+01   0.1429905E+01   0.2339326E+00   0.1649377E+01  -0.4985959E+00
  -0.2067610E+00
   0.4755283E+01   0.1545085E+01  -0.2727273E+01   0.2419640E+01   0.1432883E+01   0.3326435E+00   0.2396665E+01  -0.7223250E+00
  -0.2995384E+00
   0.4755283E+01   0.1545085E+01  -0.1818182E+01   0.3516820E+01   0.1435807E+01   0.4732940E+00   0.3484827E+01  -0.1046445E+01
  -0.4339468E+00
   0.4755283E+01   0.1545085E+01  -0.9090910E+00   0.5123636E+01   0.1442164E+01   0.6572511E+00   0.5081306E+01  -0.1516005E+01
  -0.6286667E+00
   0.4755283E+01   0.1545085E+01   0.0000000E+00   0.5123636E+01   0.1442164E+01   0.6572511E+00   0.5081306E+01  -0.1516005E+01
  -0.6286667E+00
   0.4877642E+01   0.7725425E+00  -0.1000000E+02   0.1304595E+00   0.1455283E+01   0.1503629E-01   0.1295901E+00  -0.3641107E-01
  -0.1727499E-01
   0.4877642E+01   0.7725425E+00  -0.9090909E+01   0.1911941E+00   0.1429618E+01   0.2690280E-01   0.1892919E+00  -0.5274936E-01
  -0.2502658E-01
   0.4877642E+01   0.7725425E+00  -0.8181818E+01   0.2804055E+00   0.1430310E+01   0.3926381E-01   0.2776429E+00  -0.7641900E-01
  -0.3625648E-01
   0.4877642E+01   0.7725425E+00  -0.7272727E+01   0.4049174E+00   0.1436666E+01   0.5414883E-01   0.4012805E+00  -0.1107096E+00
  -0.5252542E-01
   0.4877642E+01   0.7725425E+00  -0.6363636E+01   0.5871274E+00   0.1442651E+01   0.7503206E-01   0.5823134E+00  -0.1603870E+00
  -0.7609455E-01
   0.4877642E+01   0.7725425E+00  -0.5454545E+01   0.8515368E+00   0.1448421E+01   0.1039468E+00   0.8451685E+00  -0.2323555E+00
  -0.1102396E+00
   0.4877642E+01   0.7725425E+00  -0.4545455E+01   0.1237879E+01   0.1451990E+01   0.1467218E+00   0.1229153E+01  -0.3366177E+00
  -0.1597060E+00
   0.4877642E+01   0.7725425E+00  -0.3636364E+01   0.1796165E+01   0.1455230E+01   0.2071145E+00   0.1784184E+01  -0.4876643E+00
  -0.2313691E+00
   0.4877642E+01   0.7725425E+00  -0.2727273E+01   0.2608637E+01   0.1457953E+01   0.2937439E+00   0.2592046E+01  -0.7064882E+00
  -0.3351886E+00
   0.4877642E+01   0.7725425E+00  -0.1818182E+01   0.3790561E+01   0.1460588E+01   0.4169083E+00   0.3767564E+01  -0.1023502E+01
  -0.4855939E+00
   0.4877642E+01   0.7725425E+00  -0.9090910E+00   0.5517141E+01   0.1466047E+01   0.5768605E+00   0.5486900E+01  -0.1482767E+01
  -0.7034889E+00
   0.4877642E+01   0.7725425E+00   0.0000000E+00   0.5517141E+01   0.1466047E+01   0.5768605E+00   0.5486900E+01  -0.1482767E+01
  -0.7034889E+00
   0.5000000E+01   0.0000000E+00  -0.1000000E+02   0.1304595E+00   0.1455283E+01   0.1503629E-01   0.1295901E+00  -0.3641107E-01
  -0.1727499E-01
   0.5000000E+01   0.0000000E+00  -0.9090909E+01   0.1911941E+00   0.1429618E+01   0.2690280E-01   0.1892919E+00  -0.5274936E-01
  -0.2502658E-01
   0.5000000E+01   0.0000000E+00  -0.8181818E+01   0.2804055E+00   0.1430310E+01   0.3926381E-01   0.2776429E+00  -0.7641900E-01
  -0.3625648E-01
   0.5000000E+01   0.0000000E+00  -0.7272727E+01   0.4049174E+00   0.1436666E+01   0.5414883E-01   0.4012805E+00  -0.1107096E+00
  -0.5252542E-01
   0.5000000E+01   0.0000000E+00  -0.6363636E+01   0.5871274E+00   0.1442651E+01   0.7503206E-01   0.5823134E+00  -0.1603870E+00
  -0.7609455E-01
   0.5000000E+01   0.0000000E+00  -0.5454545E+01   0.8515368E+00   0.1448421E+01   0.1039468E+00   0.8451685E+00  -0.2323555E+00
  -0.1102396E+00
   0.5000000E+01   0.0000000E+00  -0.4545455E+01   0.1237879E+01   0.1451990E+01   0.1467218E+00   0.1229153E+01  -0.3366177E+00
  -0.1597060E+00
   0.5000000E+01   0.0000000E+00  -0.3636364E+01   0.1796165E+01   0.1455230E+01   0.2071145E+00   0.1784184E+01  -0.4876643E+00
  -0.2313691E+00
   0.5000000E+01   0.0000000E+00  -0.2727273E+01   0.2608637E+01   0.1457953E+01   0.2937439E+00   0.2592046E+01  -0.7064882E+00
  -0.3351886E+00
   0.5000000E+01   0.0000000E+00  -0.1818182E+01   0.3790561E+01   0.1460588E+01   0.4169083E+00   0.3767564E+01  -0.1023502E+01
  -0.4855939E+00
   0.5000000E+01   0.0000000E+00  -0.9090910E+00   0.5517141E+01   0.1466047E+01   0.5768605E+00   0.5486900E+01  -0.1482767E+01
  -0.7034889E+00
   0.5000000E+01   0.0000000E+00   0.0000000E+00   0.5517141E+01   0.1466047E+01   0.5768605E+00   0.5486900E+01  -0.1482767E+01
  -0.7034889E+00
   0.4045085E+01   0.2938926E+01  -0.1000000E+02   0.8767440E-01   0.1293504E+01   0.2400110E-01   0.8432525E-01  -0.3594274E-01
  -0.5467920E-02
   0.4045085E+01   0.2938926E+01  -0.9090909E+01   0.1216132E+00   0.1261061E+01   0.3706848E-01   0.1158261E+00  -0.5207089E-01
  -0.7921474E-02
   0.4045085E+01   0.2938926E+01  -0.8181818E+01   0.1734496E+00   0.1261196E+01   0.5284631E-01   0.1652030E+00  -0.7543608E-01
  -0.1147599E-01
   0.4045085E+01   0.2938926E+01  -0.7272727E+01   0.2472010E+00   0.1269555E+01   0.7334591E-01   0.2360693E+00  -0.1092856E+00
  -0.1662547E-01
   0.4045085E+01   0.2938926E+01  -0.6363636E+01   0.3549406E+00   0.1277059E+01   0.1027666E+00   0.3397380E+00  -0.1583241E+00
  -0.2408563E-01
   0.4045085E+01   0.2938926E+01  -0.5454545E+01   0.5121123E+00   0.1285169E+01   0.1442923E+00   0.4913641E+00  -0.2293669E+00
  -0.3489329E-01
   0.4045085E+01   0.2938926E+01  -0.4545455E+01   0.7407728E+00   0.1289545E+01   0.2056076E+00   0.7116669E+00  -0.3322881E+00
  -0.5055053E-01
   0.4045085E+01   0.2938926E+01  -0.3636364E+01   0.1074046E+01   0.1294820E+01   0.2926627E+00   0.1033404E+01  -0.4813919E+00
  -0.7323349E-01
   0.4045085E+01   0.2938926E+01  -0.2727273E+01   0.1561051E+01   0.1299637E+01   0.4181257E+00   0.1504011E+01  -0.6974012E+00
  -0.1060947E+00
   0.4045085E+01   0.2938926E+01  -0.1818182E+01   0.2273322E+01   0.1304745E+01   0.5977094E+00   0.2193339E+01  -0.1010338E+01
  -0.1537013E+00
   0.4045085E+01   0.2938926E+01  -0.9090910E+00   0.3339251E+01   0.1317847E+01   0.8356836E+00   0.3232991E+01  -0.1463695E+01
  -0.2226700E+00
   0.4045085E+01   0.2938926E+01   0.0000000E+00   0.3339251E+01   0.1317847E+01   0.8356836E+00   0.3232991E+01  -0.1463695E+01
  -0.2226700E+00
   0.4400184E+01   0.2242005E+01  -0.1000000E+02   0.1065462E+00   0.1378530E+01   0.2035922E-01   0.1045830E+00  -0.3477770E-01
  -0.1059671E-01
   0.4400184E+01   0.2242005E+01  -0.9090909E+01   0.1520739E+00   0.1350397E+01   0.3324630E-01   0.1483953E+00  -0.5038308E-01
  -0.1535164E-01
   0.4400184E+01   0.2242005E+01  -0.8181818E+01   0.2202901E+00   0.1351382E+01   0.4794799E-01   0.2150086E+00  -0.7299091E-01
  -0.2224021E-01
   0.4400184E+01   0.2242005E+01  -0.7272727E+01   0.3162916E+00   0.1358945E+01   0.6650662E-01   0.3092204E+00  -0.1057433E+00
  -0.3221980E-01
   0.4400184E+01   0.2242005E+01  -0.6363636E+01   0.4566974E+00   0.1365855E+01   0.9294231E-01   0.4471401E+00  -0.1531922E+00
  -0.4667742E-01
   0.4400184E+01   0.2242005E+01  -0.5454545E+01   0.6609215E+00   0.1372798E+01   0.1300078E+00   0.6480086E+00  -0.2219323E+00
  -0.6762242E-01
   0.4400184E+01   0.2242005E+01  -0.4545455E+01   0.9587840E+00   0.1376838E+01   0.1848007E+00   0.9408058E+00  -0.3215174E+00
  -0.9796583E-01
   0.4400184E+01   0.2242005E+01  -0.3636364E+01   0.1390829E+01   0.1380990E+01   0.2624066E+00   0.1365851E+01  -0.4657882E+00
  -0.1419249E+00
   0.4400184E+01   0.2242005E+01  -0.2727273E+01   0.2020741E+01   0.1384611E+01   0.3740622E+00   0.1985818E+01  -0.6747959E+00
  -0.2056092E+00
   0.4400184E+01   0.2242005E+01  -0.1818182E+01   0.2939376E+01   0.1388273E+01   0.5335304E+00   0.2890550E+01  -0.9775891E+00
  -0.2978698E+00
   0.4400184E+01   0.2242005E+01  -0.9090910E+00   0.4297715E+01   0.1396834E+01   0.7438733E+00   0.4232849E+01  -0.1416251E+01
  -0.4315295E+00
   0.4400184E+01   0.2242005E+01   0.0000000E+00   0.4297715E+01   0.1396834E+01   0.7438733E+00   0.4232849E+01  -0.1416251E+01
  -0.4315295E+00
   0.4755283E+01   0.1545085E+01  -0.1000000E+02   0.1065462E+00   0.1378530E+01   0.2035922E-01   0.1045830E+00  -0.3477770E-01
  -0.1059671E-01
   0.4755283E+01   0.1545085E+01  -0.9090909E+01   0.1520739E+00   0.1350397E+01   0.3324630E-01   0.1483953E+00  -0.5038308E-01
  -0.1535164E-01
   0.4755283E+01   0.1545085E+01  -0.8181818E+01   0.2202901E+00   0.1351382E+01   0.4794799E-01   0.2150086E+00  -0.7299091E-01
  -0.2224021E-01
   0.4755283E+01   0.1545085E+01  -0.7272727E+01   0.3162916E+00   0.1358945E+01   0.6650662E-01   0.3092204E+00  -0.1057433E+00
  -0.3221980E-01
   0.4755283E+01   0.1545085E+01  -0.6363636E+01   0.4566974E+00   0.1365855E+01   0.9294231E-01   0.4471401E+00  -0.1531922E+00
  -0.4667742E-01
   0.4755283E+01   0.1545085E+01  -0.5454545E+01   0.6609215E+00   0.1372798E+01   0.1300078E+00   0.6480086E+00  -0.2219323E+00
  -0.6762242E-01
   0.4755283E+01   0.1545085E+01  -0.4545455E+01   0.9587840E+00   0.1376838E+01   0.1848007E+00   0.9408058E+00  -0.3215174E+00
  -0.9796583E-01
   0.4755283E+01   0.1545085E+01  -0.3636364E+01   0.1390829E+01   0.1380990E+01   0.2624066E+00   0.1365851E+01  -0.4657882E+00
  -0.1419249E+00
   0.4755283E+01   0.1545085E+01  -0.2727273E+01   0.2020741E+01   0.1384611E+01   0.3740622E+00   0.1985818E+01  -0.6747959E+00
  -0.2056092E+00
   0.4755283E+01   0.1545085E+01  -0.1818182E+01   0.2939376E+01   0.1388273E+01   0.5335304E+00   0.2890550E+01  -0.9775891E+00
  -0.2978698E+00
   0.4755283E+01   0.1545085E+01  -0.9090910E+00   0.4297715E+01   0.1396834E+01   0.7438733E+00   0.4232849E+01  -0.1416251E+01
  -0.4315295E+00
   0.4755283E+01   0.1545085E+01   0.0000000E+00   0.4297715E+01   0.1396834E+01   0.7438733E+00   0.4232849E+01  -0.1416251E+01
  -0.4315295E+00
   0.2938926E+01   0.4045085E+01  -0.1000000E+02   0.4444146E-01   0.1020823E+01   0.2322796E-01   0.3788806E-01  -0.2788502E-01
   0.7409038E-02
   0.2938926E+01   0.4045085E+01  -0.9090909E+01   0.5154463E-01   0.9495431E+00   0.3000179E-01   0.4191349E-01  -0.4039752E-01
   0.1073361E-01
   0.2938926E+01   0.4045085E+01  -0.8181818E+01   0.6621718E-01   0.9225735E+00   0.3997999E-01   0.5278556E-01  -0.5852466E-01
   0.1554998E-01
   0.2938926E+01   0.4045085E+01  -0.7272727E+01   0.8921285E-01   0.9241706E+00   0.5375046E-01   0.7120268E-01  -0.8478573E-01
   0.2252753E-01
   0.2938926E+01   0.4045085E+01  -0.6363636E+01   0.1225960E+00   0.9250154E+00   0.7378098E-01   0.9790881E-01  -0.1228307E+00
   0.3263606E-01
   0.2938926E+01   0.4045085E+01  -0.5454545E+01   0.1723997E+00   0.9355270E+00   0.1023010E+00   0.1387666E+00  -0.1779470E+00
   0.4728045E-01
   0.2938926E+01   0.4045085E+01  -0.4545455E+01   0.2435984E+00   0.9361421E+00   0.1444293E+00   0.1961642E+00  -0.2577950E+00
   0.6849604E-01
   0.2938926E+01   0.4045085E+01  -0.3636364E+01   0.3512803E+00   0.9490662E+00   0.2046006E+00   0.2855459E+00  -0.3734725E+00
   0.9923147E-01
   0.2938926E+01   0.4045085E+01  -0.2727273E+01   0.5114605E+00   0.9641787E+00   0.2915795E+00   0.4202062E+00  -0.5410563E+00
   0.1437585E+00
   0.2938926E+01   0.4045085E+01  -0.1818182E+01   0.7512055E+00   0.9832519E+00   0.4164074E+00   0.6252316E+00  -0.7838383E+00
   0.2082655E+00
   0.2938926E+01   0.4045085E+01  -0.9090910E+00   0.1147732E+01   0.1039376E+01   0.5816230E+00   0.9894460E+00  -0.1135561E+01
   0.3017181E+00
   0.2938926E+01   0.4045085E+01   0.0000000E+00   0.1147732E+01   0.1039376E+01   0.5816230E+00   0.9894460E+00  -0.1135561E+01
   0.3017181E+00
   0.3492005E+01   0.3492005E+01  -0.1000000E+02   0.6427982E-01   0.1186217E+01   0.2411580E-01   0.5958460E-01  -0.2883563E-01
   0.9860651E-03
   0.3492005E+01   0.3492005E+01  -0.9090909E+01   0.8325936E-01   0.1145755E+01   0.3433270E-01   0.7585108E-01  -0.4177469E-01
   0.1428530E-02
   0.3492005E+01   0.3492005E+01  -0.8181818E+01   0.1146734E+00   0.1141740E+01   0.4770560E-01   0.1042792E+00  -0.6051979E-01
   0.2069538E-02
   0.3492005E+01   0.3492005E+01  -0.7272727E+01   0.1606004E+00   0.1150963E+01   0.6546209E-01   0.1466534E+00  -0.8767612E-01
   0.2998178E-02
   0.3492005E+01   0.3492005E+01  -0.6363636E+01   0.2275937E+00   0.1158902E+01   0.9111627E-01   0.2085587E+00  -0.1270180E+00
   0.4343516E-02
   0.3492005E+01   0.3492005E+01  -0.5454545E+01   0.3260360E+00   0.1169171E+01   0.1274523E+00   0.3000923E+00  -0.1840133E+00
   0.6292530E-02
   0.3492005E+01   0.3492005E+01  -0.4545455E+01   0.4684956E+00   0.1173717E+01   0.1811796E+00   0.4320441E+00  -0.2665834E+00
   0.9116102E-02
   0.3492005E+01   0.3492005E+01  -0.3636364E+01   0.6785530E+00   0.1181459E+01   0.2575618E+00   0.6277707E+00  -0.3862043E+00
   0.1320666E-01
   0.3492005E+01   0.3492005E+01  -0.2727273E+01   0.9872801E+00   0.1189081E+01   0.3677745E+00   0.9162227E+00  -0.5595012E+00
   0.1913274E-01
   0.3492005E+01   0.3492005E+01  -0.1818182E+01   0.1442319E+01   0.1197684E+01   0.5257481E+00   0.1343084E+01  -0.8105596E+00
   0.2771795E-01
   0.3492005E+01   0.3492005E+01  -0.9090910E+00   0.2148956E+01   0.1221100E+01   0.7362594E+00   0.2018894E+01  -0.1174273E+01
   0.4015550E-01
   0.3492005E+01   0.3492005E+01   0.0000000E+00   0.2148956E+01   0.1221100E+01   0.7362594E+00   0.2018894E+01  -0.1174273E+01
   0.4015550E-01
   0.4045085E+01   0.2938926E+01  -0.1000000E+02   0.6427982E-01   0.1186217E+01   0.2411580E-01   0.5958460E-01  -0.2883563E-01
   0.9860651E-03
   0.4045085E+01   0.2938926E+01  -0.9090909E+01   0.8325936E-01   0.1145755E+01   0.3433270E-01   0.7585108E-01  -0.4177469E-01
   0.1428530E-02
   0.4045085E+01   0.2938926E+01  -0.8181818E+01   0.1146734E+00   0.1141740E+01   0.4770560E-01   0.1042792E+00  -0.6051979E-01
   0.2069538E-02
   0.4045085E+01   0.2938926E+01  -0.7272727E+01   0.1606004E+00   0.1150963E+01   0.6546209E-01   0.1466534E+00  -0.8767612E-01
   0.2998178E-02
   0.4045085E+01   0.2938926E+01  -0.6363636E+01   0.2275937E+00   0.1158902E+01   0.9111627E-01   0.2085587E+00  -0.1270180E+00
   0.4343516E-02
   0.4045085E+01   0.2938926E+01  -0.5454545E+01   0.3260360E+00   0.1169171E+01   0.1274523E+00   0.3000923E+00  -0.1840133E+00
   0.6292530E-02
   0.4045085E+01   0.2938926E+01  -0.4545455E+01   0.4684956E+00   0.1173717E+01   0.1811796E+00   0.4320441E+00  -0.2665834E+00
   0.9116102E-02
   0.4045085E+01   0.2938926E+01  -0.3636364E+01   0.6785530E+00   0.1181459E+01   0.2575618E+00   0.6277707E+00  -0.3862043E+00
   0.1320666E-01
   0.4045085E+01   0.2938926E+01  -0.2727273E+01   0.9872801E+00   0.1189081E+01   0.3677745E+00   0.9162227E+00  -0.5595012E+00
   0.1913274E-01
   0.4045085E+01   0.2938926E+01  -0.1818182E+01   0.1442319E+01   0.1197684E+01   0.5257481E+00   0.1343084E+01  -0.8105596E+00
   0.2771795E-01
   0.4045085E+01   0.2938926E+01  -0.9090910E+00   0.2148956E+01   0.1221100E+01   0.7362594E+00   0.2018894E+01  -0.1174273E+01
   0.4015550E-01
   0.4045085E+01   0.2938926E+01   0.0000000E+00   0.2148956E+01   0.1221100E+01   0.7362594E+00   0.2018894E+01  -0.1174273E+01
   0.4015550E-01
   0.1545085E+01   0.4755283E+01  -0.1000000E+02   0.1305700E-01   0.6773486E+00   0.1017450E-01   0.8183204E-02  -0.1292326E-01
   0.1327195E-01
   0.1545085E+01   0.4755283E+01  -0.9090909E+01   0.3309947E-02  -0.5706652E+00   0.2785459E-02  -0.1788007E-02  -0.1872216E-01
   0.1922732E-01
   0.1545085E+01   0.4755283E+01  -0.8181818E+01   0.1286563E-01  -0.1826751E+01  -0.3257183E-02  -0.1244650E-01  -0.2712315E-01
   0.2785498E-01
   0.1545085E+01   0.4755283E+01  -0.7272727E+01   0.2598945E-01  -0.1974588E+01  -0.1021146E-01  -0.2389932E-01  -0.3929380E-01
   0.4035401E-01
   0.1545085E+01   0.4755283E+01  -0.6363636E+01   0.4588440E-01  -0.2021848E+01  -0.2000156E-01  -0.4129547E-01  -0.5692565E-01
   0.5846160E-01
   0.1545085E+01   0.4755283E+01  -0.5454545E+01   0.7253656E-01  -0.2055629E+01  -0.3380640E-01  -0.6417694E-01  -0.8246922E-01
   0.8469439E-01
   0.1545085E+01   0.4755283E+01  -0.4545455E+01   0.1140444E+00  -0.2064220E+01  -0.5401642E-01  -0.1004408E+00  -0.1194746E+00
   0.1226983E+00
   0.1545085E+01   0.4755283E+01  -0.3636364E+01   0.1666488E+00  -0.2085975E+01  -0.8210628E-01  -0.1450185E+00  -0.1730851E+00
   0.1777553E+00
   0.1545085E+01   0.4755283E+01  -0.2727273E+01   0.2379972E+00  -0.2110503E+01  -0.1223030E+00  -0.2041682E+00  -0.2507516E+00
   0.2575173E+00
   0.1545085E+01   0.4755283E+01  -0.1818182E+01   0.3317569E+00  -0.2143715E+01  -0.1798412E+00  -0.2787827E+00  -0.3632684E+00
   0.3730700E+00
   0.1545085E+01   0.4755283E+01  -0.9090910E+00   0.4023592E+00  -0.2274062E+01  -0.2602104E+00  -0.3068932E+00  -0.5262737E+00
   0.5404735E+00
   0.1545085E+01   0.4755283E+01   0.0000000E+00   0.4023592E+00  -0.2274062E+01  -0.2602104E+00  -0.3068932E+00  -0.5262737E+00
   0.5404735E+00
   0.2242005E+01   0.4400184E+01  -0.1000000E+02   0.2552109E-01   0.8749344E+00   0.1636022E-01   0.1958747E-01  -0.1612589E-01
   0.9116547E-02
   0.2242005E+01   0.4400184E+01  -0.9090909E+01   0.2081415E-01   0.7377728E+00   0.1540182E-01   0.1400046E-01  -0.2336186E-01
   0.1320731E-01
   0.2242005E+01   0.4400184E+01  -0.8181818E+01   0.1998246E-01   0.5677138E+00   0.1684786E-01   0.1074468E-01  -0.3384477E-01
   0.1913367E-01
   0.2242005E+01   0.4400184E+01  -0.7272727E+01   0.2183434E-01   0.4621147E+00   0.1954417E-01   0.9734665E-02  -0.4903152E-01
   0.2771930E-01
   0.2242005E+01   0.4400184E+01  -0.6363636E+01   0.2494134E-01   0.3194365E+00   0.2367962E-01   0.7832371E-02  -0.7103287E-01
   0.4015746E-01
   0.2242005E+01   0.4400184E+01  -0.5454545E+01   0.3053902E-01   0.2453987E+00   0.2962408E-01   0.7419243E-02  -0.1029066E+00
   0.5817684E-01
   0.2242005E+01   0.4400184E+01  -0.4545455E+01   0.3881202E-01   0.1067789E+00   0.3859097E-01   0.4136433E-02  -0.1490827E+00
   0.8428184E-01
   0.2242005E+01   0.4400184E+01  -0.3636364E+01   0.5216967E-01   0.1317503E+00   0.5171754E-01   0.6853505E-02  -0.2159788E+00
   0.1221007E+00
   0.2242005E+01   0.4400184E+01  -0.2727273E+01   0.7273862E-01   0.2243487E+00   0.7091573E-01   0.1618227E-01  -0.3128925E+00
   0.1768894E+00
   0.2242005E+01   0.4400184E+01  -0.1818182E+01   0.1065960E+00   0.3895639E+00   0.9860928E-01   0.4048357E-01  -0.4532931E+00
   0.2562630E+00
   0.2242005E+01   0.4400184E+01  -0.9090910E+00   0.2034171E+00   0.8466533E+00   0.1347626E+00   0.1523731E+00  -0.6566940E+00
   0.3712529E+00
   0.2242005E+01   0.4400184E+01   0.0000000E+00   0.2034171E+00   0.8466533E+00   0.1347626E+00   0.1523731E+00  -0.6566940E+00
   0.3712529E+00
   0.2938926E+01   0.4045085E+01  -0.1000000E+02   0.2552109E-01   0.8749344E+00   0.1636022E-01   0.1958747E-01  -0.1612589E-01
   0.9116547E-02
   0.2938926E+01   0.4045085E+01  -0.9090909E+01   0.2081415E-01   0.7377728E+00   0.1540182E-01   0.1400046E-01  -0.2336186E-01
   0.1320731E-01
   0.2938926E+01   0.4045085E+01  -0.8181818E+01   0.1998246E-01   0.5677138E+00   0.1684786E-01   0.1074468E-01  -0.3384477E-01
   0.1913367E-01
   0.2938926E+01   0.4045085E+01  -0.7272727E+01   0.2183434E-01   0.4621147E+00   0.1954417E-01   0.9734665E-02  -0.4903152E-01
   0.2771930E-01
   0.2938926E+01   0.4045085E+01  -0.6363636E+01   0.2494134E-01   0.3194365E+00   0.2367962E-01   0.7832371E-02  -0.7103287E-01
   0.4015746E-01
   0.2938926E+01   0.4045085E+01  -0.5454545E+01   0.3053902E-01   0.2453987E+00   0.2962408E-01   0.7419243E-02  -0.1029066E+00
   0.5817684E-01
   0.2938926E+01   0.4045085E+01  -0.4545455E+01   0.3881202E-01   0.1067789E+00   0.3859097E-01   0.4136433E-02  -0.1490827E+00
   0.8428184E-01
   0.2938926E+01   0.4045085E+01  -0.3636364E+01   0.5216967E-01   0.1317503E+00   0.5171754E-01   0.6853505E-02  -0.2159788E+00
   0.1221007E+00
   0.2938926E+01   0.4045085E+01  -0.2727273E+01   0.7273862E-01   0.2243487E+00   0.7091573E-01   0.1618227E-01  -0.3128925E+00
   0.1768894E+00
   0.2938926E+01   0.4045085E+01  -0.1818182E+01   0.1065960E+00   0.3895639E+00   0.9860928E-01   0.4048357E-01  -0.4532931E+00
   0.2562630E+00
   0.2938926E+01   0.4045085E+01  -0.9090910E+00   0.2034171E+00   0.8466533E+00   0.1347626E+00   0.1523731E+00  -0.6566940E+00
   0.3712529E+00
   0.2938926E+01   0.4045085E+01   0.0000000E+00   0.2034171E+00   0.8466533E+00   0.1347626E+00   0.1523731E+00  -0.6566940E+00
   0.3712529E+00
   0.0000000E+00   0.5000000E+01  -0.1000000E+02   0.9776611E-02   0.1976817E+01  -0.3861333E-02   0.8981772E-02  -0.1001185E-02
   0.6304040E-02
   0.0000000E+00   0.5000000E+01  -0.9090909E+01   0.2444857E-01   0.2847061E+01  -0.2339577E-01   0.7097219E-02  -0.1450434E-02
   0.9132775E-02
   0.0000000E+00   0.5000000E+01  -0.8181818E+01   0.4413265E-01   0.3060313E+01  -0.4398695E-01   0.3583152E-02  -0.2101272E-02
   0.1323082E-01
   0.0000000E+00   0.5000000E+01  -0.7272727E+01   0.7020245E-01   0.3129584E+01  -0.7019739E-01   0.8430353E-03  -0.3044150E-02
   0.1916773E-01
   0.0000000E+00   0.5000000E+01  -0.6363636E+01   0.1079536E+00  -0.3100863E+01  -0.1078641E+00  -0.4395696E-02  -0.4410117E-02
   0.2776865E-01
   0.0000000E+00   0.5000000E+01  -0.5454545E+01   0.1617503E+00  -0.3077801E+01  -0.1614213E+00  -0.1031134E-01  -0.6389016E-02
   0.4022894E-01
   0.0000000E+00   0.5000000E+01  -0.4545455E+01   0.2411228E+00  -0.3051976E+01  -0.2401552E+00  -0.2157975E-01  -0.9255884E-02
   0.5828040E-01
   0.0000000E+00   0.5000000E+01  -0.3636364E+01   0.3527200E+00  -0.3053030E+01  -0.3513377E+00  -0.3119709E-01  -0.1340917E-01
   0.8443189E-01
   0.0000000E+00   0.5000000E+01  -0.2727273E+01   0.5129337E+00  -0.3063404E+01  -0.5113666E+00  -0.4006453E-01  -0.1942611E-01
   0.1223180E+00
   0.0000000E+00   0.5000000E+01  -0.1818182E+01   0.7421118E+00  -0.3083984E+01  -0.7408807E+00  -0.4272871E-01  -0.2814296E-01
   0.1772044E+00
   0.0000000E+00   0.5000000E+01  -0.9090910E+00   0.1053177E+01   0.3119868E+01  -0.1052928E+01   0.2287826E-01  -0.4077123E-01
   0.2567192E+00
   0.0000000E+00   0.5000000E+01   0.0000000E+00   0.1053177E+01   0.3119868E+01  -0.1052928E+01   0.2287826E-01  -0.4077123E-01
   0.2567192E+00
   0.7725425E+00   0.4877642E+01  -0.1000000E+02   0.6416945E-02   0.1397573E+01   0.1106015E-02   0.6320911E-02  -0.2905063E-02
   0.5683733E-02
   0.7725425E+00   0.4877642E+01  -0.9090909E+01   0.1437477E-01  -0.3070460E+01  -0.1433841E-01  -0.1021657E-02  -0.4208616E-02
   0.8234125E-02
   0.7725425E+00   0.4877642E+01  -0.8181818E+01   0.3155204E-01  -0.2811251E+01  -0.2984608E-01  -0.1023441E-01  -0.6097101E-02
   0.1192893E-01
   0.7725425E+00   0.4877642E+01  -0.7272727E+01   0.5330377E-01  -0.2754204E+01  -0.4935389E-01  -0.2013667E-01  -0.8832982E-02
   0.1728166E-01
   0.7725425E+00   0.4877642E+01  -0.6363636E+01   0.8508902E-01  -0.2710045E+01  -0.7728801E-01  -0.3559081E-01  -0.1279650E-01
   0.2503626E-01
   0.7725425E+00   0.4877642E+01  -0.5454545E+01   0.1296554E+00  -0.2695699E+01  -0.1169784E+00  -0.5591581E-01  -0.1853853E-01
   0.3627048E-01
   0.7725425E+00   0.4877642E+01  -0.4545455E+01   0.1963054E+00  -0.2674039E+01  -0.1752366E+00  -0.8847558E-01  -0.2685710E-01
   0.5254570E-01
   0.7725425E+00   0.4877642E+01  -0.3636364E+01   0.2874745E+00  -0.2680054E+01  -0.2573955E+00  -0.1280200E+00  -0.3890838E-01
   0.7612394E-01
   0.7725425E+00   0.4877642E+01  -0.2727273E+01   0.4164836E+00  -0.2694614E+01  -0.3755671E+00  -0.1800222E+00  -0.5636727E-01
   0.1102821E+00
   0.7725425E+00   0.4877642E+01  -0.1818182E+01   0.5973853E+00  -0.2719631E+01  -0.5449871E+00  -0.2446595E+00  -0.8166030E-01
   0.1597678E+00
   0.7725425E+00   0.4877642E+01  -0.9090910E+00   0.8186459E+00  -0.2813164E+01  -0.7748894E+00  -0.2640597E+00  -0.1183028E+00
   0.2314585E+00
   0.7725425E+00   0.4877642E+01   0.0000000E+00   0.8186459E+00  -0.2813164E+01  -0.7748894E+00  -0.2640597E+00  -0.1183028E+00
   0.2314585E+00
   0.1545085E+01   0.4755283E+01  -0.1000000E+02   0.6416945E-02   0.1397573E+01   0.1106015E-02   0.6320911E-02  -0.2905063E-02
   0.5683733E-02
   0.1545085E+01   0.4755283E+01  -0.9090909E+01   0.1437477E-01  -0.3070460E+01  -0.1433841E-01  -0.1021657E-02  -0.4208616E-02
   0.8234125E-02
   0.1545085E+01   0.4755283E+01  -0.8181818E+01   0.3155204E-01  -0.2811251E+01  -0.2984608E-01  -0.1023441E-01  -0.6097101E-02
   0.1192893E-01
   0.1545085E+01   0.4755283E+01  -0.7272727E+01   0.5330377E-01  -0.2754204E+01  -0.4935389E-01  -0.2013667E-01  -0.8832982E-02
   0.1728166E-01
   0.1545085E+01   0.4755283E+01  -0.6363636E+01   0.8508902E-01  -0.2710045E+01  -0.7728801E-01  -0.3559081E-01  -0.1279650E-01
   0.2503626E-01
   0.1545085E+01   0.4755283E+01  -0.5454545E+01   0.1296554E+00  -0.2695699E+01  -0.1169784E+00  -0.5591581E-01  -0.1853853E-01
   0.3627048E-01
   0.1545085E+01   0.4755283E+01  -0.4545455E+01   0.1963054E+00  -0.2674039E+01  -0.1752366E+00  -0.8847558E-01  -0.2685710E-01
   0.5254570E-01
   0.1545085E+01   0.4755283E+01  -0.3636364E+01   0.2874745E+00  -0.2680054E+01  -0.2573955E+00  -0.1280200E+00  -0.3890838E-01
   0.7612394E-01
   0.1545085E+01   0.4755283E+01  -0.2727273E+01   0.4164836E+00  -0.2694614E+01  -0.3755671E+00  -0.1800222E+00  -0.5636727E-01
   0.1102821E+00
   0.1545085E+01   0.4755283E+01  -0.1818182E+01   0.5973853E+00  -0.2719631E+01  -0.5449871E+00  -0.2446595E+00  -0.8166030E-01
   0.1597678E+00
   0.1545085E+01   0.4755283E+01  -0.9090910E+00   0.8186459E+00  -0.2813164E+01  -0.7748894E+00  -0.2640597E+00  -0.1183028E+00
   0.2314585E+00
   0.1545085E+01   0.4755283E+01   0.0000000E+00   0.8186459E+00  -0.2813164E+01  -0.7748894E+00  -0.2640597E+00  -0.1183028E+00
   0.2314585E+00
  -0.1545085E+01   0.4755283E+01  -0.1000000E+02   0.2994032E-01   0.1681314E+01  -0.3302215E-02   0.2975766E-01  -0.2905063E-02
  -0.5683733E-02
  -0.1545085E+01   0.4755283E+01  -0.9090909E+01   0.5367476E-01   0.1979581E+01  -0.2133544E-01   0.4925220E-01  -0.4208616E-02
  -0.8234125E-02
  -0.1545085E+01   0.4755283E+01  -0.8181818E+01   0.8182474E-01   0.2089103E+01  -0.4053681E-01   0.7107781E-01  -0.6097101E-02
  -0.1192893E-01
  -0.1545085E+01   0.4755283E+01  -0.7272727E+01   0.1207452E+00   0.2139725E+01  -0.6504903E-01   0.1017253E+00  -0.8832982E-02
  -0.1728166E-01
  -0.1545085E+01   0.4755283E+01  -0.6363636E+01   0.1760956E+00   0.2176942E+01  -0.1003223E+00   0.1447242E+00  -0.1279650E-01
  -0.2503626E-01
  -0.1545085E+01   0.4755283E+01  -0.5454545E+01   0.2564977E+00   0.2197865E+01  -0.1505060E+00   0.2076993E+00  -0.1853853E-01
  -0.3627048E-01
  -0.1545085E+01   0.4755283E+01  -0.4545455E+01   0.3726729E+00   0.2216647E+01  -0.2243037E+00   0.2976120E+00  -0.2685710E-01
  -0.5254570E-01
  -0.1545085E+01   0.4755283E+01  -0.3636364E+01   0.5426162E+00   0.2221427E+01  -0.3286564E+00   0.4317608E+00  -0.3890838E-01
  -0.7612394E-01
  -0.1545085E+01   0.4755283E+01  -0.2727273E+01   0.7916804E+00   0.2220267E+01  -0.4787806E+00   0.6304975E+00  -0.5636727E-01
  -0.1102821E+00
  -0.1545085E+01   0.4755283E+01  -0.1818182E+01   0.1157646E+01   0.2213499E+01  -0.6938480E+00   0.9266714E+00  -0.8166030E-01
  -0.1597678E+00
  -0.1545085E+01   0.4755283E+01  -0.9090910E+00   0.1714532E+01   0.2182781E+01  -0.9849871E+00   0.1403360E+01  -0.1183028E+00
  -0.2314585E+00
  -0.1545085E+01   0.4755283E+01   0.0000000E+00   0.1714532E+01   0.2182781E+01  -0.9849871E+00   0.1403360E+01  -0.1183028E+00
  -0.2314585E+00
  -0.7725425E+00   0.4877642E+01  -0.1000000E+02   0.2116393E-01   0.1841142E+01  -0.5652137E-02   0.2039523E-01  -0.1001185E-02
  -0.6304040E-02
  -0.7725425E+00   0.4877642E+01  -0.9090909E+01   0.4015386E-01   0.2283840E+01  -0.2626622E-01   0.3037134E-01  -0.1450434E-02
  -0.9132775E-02
  -0.7725425E+00   0.4877642E+01  -0.8181818E+01   0.6311129E-01   0.2444127E+01  -0.4837305E-01   0.4053496E-01  -0.2101272E-02
  -0.1323082E-01
  -0.7725425E+00   0.4877642E+01  -0.7272727E+01   0.9486712E-01   0.2511369E+01  -0.7664271E-01   0.5590764E-01  -0.3044150E-02
  -0.1916773E-01
  -0.7725425E+00   0.4877642E+01  -0.6363636E+01   0.1402206E+00   0.2562069E+01  -0.1173259E+00   0.7678835E-01  -0.4410117E-02
  -0.2776865E-01
  -0.7725425E+00   0.4877642E+01  -0.5454545E+01   0.2059118E+00   0.2588414E+01  -0.1752019E+00   0.1081848E+00  -0.6389016E-02
  -0.4022894E-01
  -0.7725425E+00   0.4877642E+01  -0.4545455E+01   0.3012606E+00   0.2614160E+01  -0.2603200E+00   0.1516294E+00  -0.9255884E-02
  -0.5828040E-01
  -0.7725425E+00   0.4877642E+01  -0.3636364E+01   0.4395427E+00   0.2617863E+01  -0.3806264E+00   0.2198212E+00  -0.1340917E-01
  -0.8443189E-01
  -0.7725425E+00   0.4877642E+01  -0.2727273E+01   0.6412532E+00   0.2613193E+01  -0.5537959E+00   0.3232890E+00  -0.1942611E-01
  -0.1223180E+00