VARIABLES="X" "Y" "Z" "Module" "Phase" "Real" "Imag" "Re(NVEL)" "Im(NVEL)"
 ZONE t="Body",N=        1000 , E=         560  , F=FEPOINT,ET=QUADRILATERAL
   0.4755283E+01   0.1545085E+01  -0.1000000E+02   0.1755452E-02  -0.8144790E+00   0.1204674E-02  -0.1276860E-02  -0.6844684E-06
  -0.1105028E-08
   0.4755283E+01   0.1545085E+01  -0.9090909E+01   0.2364713E-02  -0.6832976E+00   0.1833823E-02  -0.1492971E-02  -0.3015009E-05
  -0.4867530E-08
   0.4755283E+01   0.1545085E+01  -0.8181818E+01   0.3574899E-02  -0.6823618E+00   0.2774427E-02  -0.2254430E-02  -0.1328083E-04
  -0.2144100E-07
   0.4755283E+01   0.1545085E+01  -0.7272727E+01   0.8842536E-02  -0.6471389E+00   0.7054682E-02  -0.5331220E-02  -0.5850065E-04
  -0.9444537E-07
   0.4755283E+01   0.1545085E+01  -0.6363636E+01   0.1100214E-01  -0.6513695E+00   0.8749501E-02  -0.6670336E-02  -0.2576895E-03
  -0.4160224E-06
   0.4755283E+01   0.1545085E+01  -0.5454545E+01   0.2052603E-01  -0.6147619E+00   0.1676794E-01  -0.1183868E-01  -0.1135095E-02
  -0.1832535E-05
   0.4755283E+01   0.1545085E+01  -0.4545455E+01   0.2841999E-01  -0.5737610E+00   0.2386897E-01  -0.1542622E-01  -0.4999974E-02
  -0.8072123E-05
   0.4755283E+01   0.1545085E+01  -0.3636364E+01   0.4533713E-01  -0.4361020E+00   0.4109380E-01  -0.1915083E-01  -0.2202438E-01
  -0.3555689E-04
   0.4755283E+01   0.1545085E+01  -0.2727273E+01   0.7128984E-01  -0.3164930E-01   0.7125414E-01  -0.2255897E-02  -0.9701516E-01
  -0.1566245E-03
   0.4755283E+01   0.1545085E+01  -0.1818182E+01   0.1656649E+00   0.9262075E+00   0.9954305E-01   0.1324238E+00  -0.4273419E+00
  -0.6899147E-03
   0.4755283E+01   0.1545085E+01  -0.9090910E+00   0.9326355E+00   0.1720871E+01  -0.1394402E+00   0.9221526E+00  -0.1882397E+01
  -0.3039005E-02
   0.4755283E+01   0.1545085E+01   0.0000000E+00   0.9326355E+00   0.1720871E+01  -0.1394402E+00   0.9221526E+00  -0.1882397E+01
  -0.3039005E-02
   0.4877642E+01   0.7725425E+00  -0.1000000E+02   0.2011390E-02  -0.7740469E+00   0.1438320E-02  -0.1406032E-02  -0.6706649E-06
  -0.1367745E-06
   0.4877642E+01   0.7725425E+00  -0.9090909E+01   0.2638126E-02  -0.6290538E+00   0.2133148E-02  -0.1552220E-02  -0.2954206E-05
  -0.6024767E-06
   0.4877642E+01   0.7725425E+00  -0.8181818E+01   0.3845193E-02  -0.6500151E+00   0.3061061E-02  -0.2327105E-02  -0.1301299E-04
  -0.2653852E-05
   0.4877642E+01   0.7725425E+00  -0.7272727E+01   0.9435364E-02  -0.5492514E+00   0.8047569E-02  -0.4925721E-02  -0.5732088E-04
  -0.1168994E-04
   0.4877642E+01   0.7725425E+00  -0.6363636E+01   0.1162928E-01  -0.5867350E+00   0.9684317E-02  -0.6438494E-02  -0.2524927E-03
  -0.5149302E-04
   0.4877642E+01   0.7725425E+00  -0.5454545E+01   0.2179189E-01  -0.4927119E+00   0.1919982E-01  -0.1030793E-01  -0.1112204E-02
  -0.2268214E-03
   0.4877642E+01   0.7725425E+00  -0.4545455E+01   0.3053018E-01  -0.5007240E+00   0.2678215E-01  -0.1465634E-01  -0.4899140E-02
  -0.9991240E-03
   0.4877642E+01   0.7725425E+00  -0.3636364E+01   0.4974599E-01  -0.4206084E+00   0.4541016E-01  -0.2031208E-01  -0.2158022E-01
  -0.4401041E-02
   0.4877642E+01   0.7725425E+00  -0.2727273E+01   0.7497440E-01  -0.2307018E+00   0.7298803E-01  -0.1714370E-01  -0.9505867E-01
  -0.1938614E-01
   0.4877642E+01   0.7725425E+00  -0.1818182E+01   0.7931654E-01   0.5696424E+00   0.6679197E-01   0.4277786E-01  -0.4187237E+00
  -0.8539395E-01
   0.4877642E+01   0.7725425E+00  -0.9090910E+00   0.6129514E+00   0.2341270E+01  -0.4269056E+00   0.4398421E+00  -0.1844435E+01
  -0.3761517E+00
   0.4877642E+01   0.7725425E+00   0.0000000E+00   0.6129514E+00   0.2341270E+01  -0.4269056E+00   0.4398421E+00  -0.1844435E+01
  -0.3761517E+00
   0.5000000E+01   0.0000000E+00  -0.1000000E+02   0.2011390E-02  -0.7740469E+00   0.1438320E-02  -0.1406032E-02  -0.6706649E-06
  -0.1367745E-06
   0.5000000E+01   0.0000000E+00  -0.9090909E+01   0.2638126E-02  -0.6290538E+00   0.2133148E-02  -0.1552220E-02  -0.2954206E-05
  -0.6024767E-06
   0.5000000E+01   0.0000000E+00  -0.8181818E+01   0.3845193E-02  -0.6500151E+00   0.3061061E-02  -0.2327105E-02  -0.1301299E-04
  -0.2653852E-05
   0.5000000E+01   0.0000000E+00  -0.7272727E+01   0.9435364E-02  -0.5492514E+00   0.8047569E-02  -0.4925721E-02  -0.5732088E-04
  -0.1168994E-04
   0.5000000E+01   0.0000000E+00  -0.6363636E+01   0.1162928E-01  -0.5867350E+00   0.9684317E-02  -0.6438494E-02  -0.2524927E-03
  -0.5149302E-04
   0.5000000E+01   0.0000000E+00  -0.5454545E+01   0.2179189E-01  -0.4927119E+00   0.1919982E-01  -0.1030793E-01  -0.1112204E-02
  -0.2268214E-03
   0.5000000E+01   0.0000000E+00  -0.4545455E+01   0.3053018E-01  -0.5007240E+00   0.2678215E-01  -0.1465634E-01  -0.4899140E-02
  -0.9991240E-03
   0.5000000E+01   0.0000000E+00  -0.3636364E+01   0.4974599E-01  -0.4206084E+00   0.4541016E-01  -0.2031208E-01  -0.2158022E-01
  -0.4401041E-02
   0.5000000E+01   0.0000000E+00  -0.2727273E+01   0.7497440E-01  -0.2307018E+00   0.7298803E-01  -0.1714370E-01  -0.9505867E-01
  -0.1938614E-01
   0.5000000E+01   0.0000000E+00  -0.1818182E+01   0.7931654E-01   0.5696424E+00   0.6679197E-01   0.4277786E-01  -0.4187237E+00
  -0.8539395E-01
   0.5000000E+01   0.0000000E+00  -0.9090910E+00   0.6129514E+00   0.2341270E+01  -0.4269056E+00   0.4398421E+00  -0.1844435E+01
  -0.3761517E+00
   0.5000000E+01   0.0000000E+00   0.0000000E+00   0.6129514E+00   0.2341270E+01  -0.4269056E+00   0.4398421E+00  -0.1844435E+01
  -0.3761517E+00
   0.4045085E+01   0.2938926E+01  -0.1000000E+02   0.5291231E-03  -0.1320906E+01   0.1308509E-03  -0.5126884E-03  -0.3506260E-06
   0.5082608E-06
   0.4045085E+01   0.2938926E+01  -0.9090909E+01   0.1094386E-02  -0.1064008E+01   0.5311836E-03  -0.9568303E-03  -0.1544469E-05
   0.2238834E-05
   0.4045085E+01   0.2938926E+01  -0.8181818E+01   0.2255091E-02  -0.8614243E+00   0.1468871E-02  -0.1711098E-02  -0.6803239E-05
   0.9861847E-05
   0.4045085E+01   0.2938926E+01  -0.7272727E+01   0.6196771E-02  -0.1084122E+01   0.2898162E-02  -0.5477283E-02  -0.2996756E-04
   0.4344041E-04
   0.4045085E+01   0.2938926E+01  -0.6363636E+01   0.8007941E-02  -0.9643290E+00   0.4564273E-02  -0.6579858E-02  -0.1320041E-03
   0.1913506E-03
   0.4045085E+01   0.2938926E+01  -0.5454545E+01   0.1523444E-01  -0.1138361E+01   0.6384502E-02  -0.1383208E-01  -0.5814642E-03
   0.8428795E-03
   0.4045085E+01   0.2938926E+01  -0.4545455E+01   0.2228583E-01  -0.1040707E+01   0.1126795E-01  -0.1922736E-01  -0.2561288E-02
   0.3712795E-02
   0.4045085E+01   0.2938926E+01  -0.3636364E+01   0.3947055E-01  -0.9710975E+00   0.2227694E-01  -0.3258317E-01  -0.1128222E-01
   0.1635449E-01
   0.4045085E+01   0.2938926E+01  -0.2727273E+01   0.7692461E-01  -0.7070554E+00   0.5848409E-01  -0.4997007E-01  -0.4969702E-01
   0.7203984E-01
   0.4045085E+01   0.2938926E+01  -0.1818182E+01   0.2022064E+00  -0.1314266E+00   0.2004625E+00  -0.2649886E-01  -0.2189103E+00
   0.3173282E+00
   0.4045085E+01   0.2938926E+01  -0.9090910E+00   0.9191368E+00   0.5154915E+00   0.7996954E+00   0.4531000E+00  -0.9642774E+00
   0.1397798E+01
   0.4045085E+01   0.2938926E+01   0.0000000E+00   0.9191368E+00   0.5154915E+00   0.7996954E+00   0.4531000E+00  -0.9642774E+00
   0.1397798E+01
   0.4400184E+01   0.2242005E+01  -0.1000000E+02   0.1149743E-02  -0.9347361E+00   0.6829827E-03  -0.9249020E-03  -0.5716292E-06
   0.2334688E-06
   0.4400184E+01   0.2242005E+01  -0.9090909E+01   0.1759062E-02  -0.8190636E+00   0.1201273E-02  -0.1285007E-02  -0.2517965E-05
   0.1028405E-05
   0.4400184E+01   0.2242005E+01  -0.8181818E+01   0.2979283E-02  -0.7595280E+00   0.2160460E-02  -0.2051472E-02  -0.1109139E-04
   0.4530023E-05
   0.4400184E+01   0.2242005E+01  -0.7272727E+01   0.7580962E-02  -0.8548138E+00   0.4975833E-02  -0.5719447E-02  -0.4885643E-04
   0.1995428E-04
   0.4400184E+01   0.2242005E+01  -0.6363636E+01   0.9627383E-02  -0.7963496E+00   0.6732628E-02  -0.6881731E-02  -0.2152077E-03
   0.8789661E-04
   0.4400184E+01   0.2242005E+01  -0.5454545E+01   0.1799175E-01  -0.8680388E+00   0.1162851E-01  -0.1372884E-01  -0.9479673E-03
   0.3871754E-03
   0.4400184E+01   0.2242005E+01  -0.4545455E+01   0.2500476E-01  -0.7685205E+00   0.1797692E-01  -0.1738012E-01  -0.4175695E-02
   0.1705466E-02
   0.4400184E+01   0.2242005E+01  -0.3636364E+01   0.4016256E-01  -0.6030044E+00   0.3307931E-01  -0.2277697E-01  -0.1839352E-01
   0.7512409E-02
   0.4400184E+01   0.2242005E+01  -0.2727273E+01   0.7115499E-01  -0.8841676E-01   0.7087705E-01  -0.6283100E-02  -0.8102157E-01
   0.3309139E-01
   0.4400184E+01   0.2242005E+01  -0.1818182E+01   0.2317520E+00   0.7082639E+00   0.1760139E+00   0.1507584E+00  -0.3568917E+00
   0.1457642E+00
   0.4400184E+01   0.2242005E+01  -0.9090910E+00   0.1220018E+01   0.1200786E+01   0.4411885E+00   0.1137452E+01  -0.1572072E+01
   0.6420764E+00
   0.4400184E+01   0.2242005E+01   0.0000000E+00   0.1220018E+01   0.1200786E+01   0.4411885E+00   0.1137452E+01  -0.1572072E+01
   0.6420764E+00
   0.4755283E+01   0.1545085E+01  -0.1000000E+02   0.1149743E-02  -0.9347361E+00   0.6829827E-03  -0.9249020E-03  -0.5716292E-06
   0.2334688E-06
   0.4755283E+01   0.1545085E+01  -0.9090909E+01   0.1759062E-02  -0.8190636E+00   0.1201273E-02  -0.1285007E-02  -0.2517965E-05
   0.1028405E-05
   0.4755283E+01   0.1545085E+01  -0.8181818E+01   0.2979283E-02  -0.7595280E+00   0.2160460E-02  -0.2051472E-02  -0.1109139E-04
   0.4530023E-05
   0.4755283E+01   0.1545085E+01  -0.7272727E+01   0.7580962E-02  -0.8548138E+00   0.4975833E-02  -0.5719447E-02  -0.4885643E-04
   0.1995428E-04
   0.4755283E+01   0.1545085E+01  -0.6363636E+01   0.9627383E-02  -0.7963496E+00   0.6732628E-02  -0.6881731E-02  -0.2152077E-03
   0.8789661E-04
   0.4755283E+01   0.1545085E+01  -0.5454545E+01   0.1799175E-01  -0.8680388E+00   0.1162851E-01  -0.1372884E-01  -0.9479673E-03
   0.3871754E-03
   0.4755283E+01   0.1545085E+01  -0.4545455E+01   0.2500476E-01  -0.7685205E+00   0.1797692E-01  -0.1738012E-01  -0.4175695E-02
   0.1705466E-02
   0.4755283E+01   0.1545085E+01  -0.3636364E+01   0.4016256E-01  -0.6030044E+00   0.3307931E-01  -0.2277697E-01  -0.1839352E-01
   0.7512409E-02
   0.4755283E+01   0.1545085E+01  -0.2727273E+01   0.7115499E-01  -0.8841676E-01   0.7087705E-01  -0.6283100E-02  -0.8102157E-01
   0.3309139E-01
   0.4755283E+01   0.1545085E+01  -0.1818182E+01   0.2317520E+00   0.7082639E+00   0.1760139E+00   0.1507584E+00  -0.3568917E+00
   0.1457642E+00
   0.4755283E+01   0.1545085E+01  -0.9090910E+00   0.1220018E+01   0.1200786E+01   0.4411885E+00   0.1137452E+01  -0.1572072E+01
   0.6420764E+00
   0.4755283E+01   0.1545085E+01   0.0000000E+00   0.1220018E+01   0.1200786E+01   0.4411885E+00   0.1137452E+01  -0.1572072E+01
   0.6420764E+00
   0.2938926E+01   0.4045085E+01  -0.1000000E+02   0.1439964E-02   0.2519446E+01  -0.1170157E-02   0.8391829E-03   0.4223021E-06
   0.2485694E-06
   0.2938926E+01   0.4045085E+01  -0.9090909E+01   0.9099588E-03   0.2755153E+01  -0.8428557E-03   0.3429569E-03   0.1860195E-05
   0.1094921E-05
   0.2938926E+01   0.4045085E+01  -0.8181818E+01   0.4375933E-03  -0.1650444E+01  -0.3481656E-04  -0.4362061E-03   0.8193980E-05
   0.4823022E-05
   0.2938926E+01   0.4045085E+01  -0.7272727E+01   0.2461540E-02  -0.1666471E+01  -0.2351475E-03  -0.2450283E-02   0.3609362E-04
   0.2124491E-04
   0.2938926E+01   0.4045085E+01  -0.6363636E+01   0.3477191E-02  -0.1402381E+01   0.5828464E-03  -0.3427994E-02   0.1589888E-03
   0.9358169E-04
   0.2938926E+01   0.4045085E+01  -0.5454545E+01   0.6831781E-02  -0.1716864E+01  -0.9943597E-03  -0.6759029E-02   0.7003290E-03
   0.4122176E-03
   0.2938926E+01   0.4045085E+01  -0.4545455E+01   0.1223263E-01  -0.1737226E+01  -0.2026484E-02  -0.1206361E-01   0.3084875E-02
   0.1815774E-02
   0.2938926E+01   0.4045085E+01  -0.3636364E+01   0.2912175E-01  -0.1905488E+01  -0.9565847E-02  -0.2750583E-01   0.1358857E-01
   0.7998305E-02
   0.2938926E+01   0.4045085E+01  -0.2727273E+01   0.8248858E-01  -0.2007850E+01  -0.3491512E-01  -0.7473487E-01   0.5985624E-01
   0.3523171E-01
   0.2938926E+01   0.4045085E+01  -0.1818182E+01   0.2523724E+00  -0.2023898E+01  -0.1104775E+00  -0.2269064E+00   0.2636606E+00
   0.1551921E+00
   0.2938926E+01   0.4045085E+01  -0.9090910E+00   0.7385464E+00  -0.1941579E+01  -0.2676089E+00  -0.6883577E+00   0.1161398E+01
   0.6836055E+00
   0.2938926E+01   0.4045085E+01   0.0000000E+00   0.7385464E+00  -0.1941579E+01  -0.2676089E+00  -0.6883577E+00   0.1161398E+01
   0.6836055E+00
   0.3492005E+01   0.3492005E+01  -0.1000000E+02   0.6345717E-03   0.2833009E+01  -0.6045974E-03   0.1927257E-03   0.6679312E-07
   0.4854522E-06
   0.3492005E+01   0.3492005E+01  -0.9090909E+01   0.4238443E-03  -0.2247064E+01  -0.2652783E-03  -0.3305622E-03   0.2942164E-06
   0.2138364E-05
   0.3492005E+01   0.3492005E+01  -0.8181818E+01   0.1275145E-02  -0.1055889E+01   0.6279504E-03  -0.1109808E-02   0.1295995E-05
   0.9419289E-05
   0.3492005E+01   0.3492005E+01  -0.7272727E+01   0.4271657E-02  -0.1376577E+01   0.8244309E-03  -0.4191345E-02   0.5708723E-05
   0.4149099E-04
   0.3492005E+01   0.3492005E+01  -0.6363636E+01   0.5700596E-02  -0.1187190E+01   0.2133547E-02  -0.5286281E-02   0.2514635E-04
   0.1827636E-03
   0.3492005E+01   0.3492005E+01  -0.5454545E+01   0.1116014E-01  -0.1453187E+01   0.1309511E-02  -0.1108304E-01   0.1107670E-03
   0.8050548E-03
   0.3492005E+01   0.3492005E+01  -0.4545455E+01   0.1815715E-01  -0.1395605E+01   0.3164723E-02  -0.1787922E-01   0.4879171E-03
   0.3546180E-02
   0.3492005E+01   0.3492005E+01  -0.3636364E+01   0.3795403E-01  -0.1454960E+01   0.4386612E-02  -0.3769968E-01   0.2149226E-02
   0.1562057E-01
   0.3492005E+01   0.3492005E+01  -0.2727273E+01   0.9154657E-01  -0.1437409E+01   0.1217494E-01  -0.9073338E-01   0.9467120E-02
   0.6880701E-01
   0.3492005E+01   0.3492005E+01  -0.1818182E+01   0.2421986E+00  -0.1280525E+01   0.6932013E-01  -0.2320666E+00   0.4170170E-01
   0.3030879E+00
   0.3492005E+01   0.3492005E+01  -0.9090910E+00   0.6667654E+00  -0.8332826E+00   0.4483662E+00  -0.4935016E+00   0.1836917E+00
   0.1335071E+01
   0.3492005E+01   0.3492005E+01   0.0000000E+00   0.6667654E+00  -0.8332826E+00   0.4483662E+00  -0.4935016E+00   0.1836917E+00
   0.1335071E+01
   0.4045085E+01   0.2938926E+01  -0.1000000E+02   0.6345717E-03   0.2833009E+01  -0.6045974E-03   0.1927257E-03   0.6679312E-07
   0.4854522E-06
   0.4045085E+01   0.2938926E+01  -0.9090909E+01   0.4238443E-03  -0.2247064E+01  -0.2652783E-03  -0.3305622E-03   0.2942164E-06
   0.2138364E-05
   0.4045085E+01   0.2938926E+01  -0.8181818E+01   0.1275145E-02  -0.1055889E+01   0.6279504E-03  -0.1109808E-02   0.1295995E-05
   0.9419289E-05
   0.4045085E+01   0.2938926E+01  -0.7272727E+01   0.4271657E-02  -0.1376577E+01   0.8244309E-03  -0.4191345E-02   0.5708723E-05
   0.4149099E-04
   0.4045085E+01   0.2938926E+01  -0.6363636E+01   0.5700596E-02  -0.1187190E+01   0.2133547E-02  -0.5286281E-02   0.2514635E-04
   0.1827636E-03
   0.4045085E+01   0.2938926E+01  -0.5454545E+01   0.1116014E-01  -0.1453187E+01   0.1309511E-02  -0.1108304E-01   0.1107670E-03
   0.8050548E-03
   0.4045085E+01   0.2938926E+01  -0.4545455E+01   0.1815715E-01  -0.1395605E+01   0.3164723E-02  -0.1787922E-01   0.4879171E-03
   0.3546180E-02
   0.4045085E+01   0.2938926E+01  -0.3636364E+01   0.3795403E-01  -0.1454960E+01   0.4386612E-02  -0.3769968E-01   0.2149226E-02
   0.1562057E-01
   0.4045085E+01   0.2938926E+01  -0.2727273E+01   0.9154657E-01  -0.1437409E+01   0.1217494E-01  -0.9073338E-01   0.9467120E-02
   0.6880701E-01
   0.4045085E+01   0.2938926E+01  -0.1818182E+01   0.2421986E+00  -0.1280525E+01   0.6932013E-01  -0.2320666E+00   0.4170170E-01
   0.3030879E+00
   0.4045085E+01   0.2938926E+01  -0.9090910E+00   0.6667654E+00  -0.8332826E+00   0.4483662E+00  -0.4935016E+00   0.1836917E+00
   0.1335071E+01
   0.4045085E+01   0.2938926E+01   0.0000000E+00   0.6667654E+00  -0.8332826E+00   0.4483662E+00  -0.4935016E+00   0.1836917E+00
   0.1335071E+01
   0.1545085E+01   0.4755283E+01  -0.1000000E+02   0.3189622E-02   0.2318116E+01  -0.2167908E-02   0.2339629E-02  -0.1674285E-07
  -0.3141704E-06
   0.1545085E+01   0.4755283E+01  -0.9090909E+01   0.2549772E-02   0.2288448E+01  -0.1676775E-02   0.1920876E-02  -0.7375041E-07
  -0.1383886E-05
   0.1545085E+01   0.4755283E+01  -0.8181818E+01   0.1462702E-02   0.2301789E+01  -0.9765129E-03   0.1088999E-02  -0.3248635E-06
  -0.6095886E-05
   0.1545085E+01   0.4755283E+01  -0.7272727E+01   0.1807219E-02   0.2004906E+01  -0.7601216E-03   0.1639590E-02  -0.1430990E-05
  -0.2685175E-04
   0.1545085E+01   0.4755283E+01  -0.6363636E+01   0.1180312E-02   0.2045379E+01  -0.5393644E-03   0.1049868E-02  -0.6303366E-05
  -0.1182792E-03
   0.1545085E+01   0.4755283E+01  -0.5454545E+01   0.3034154E-02   0.1689704E+01  -0.3599349E-03   0.3012729E-02  -0.2776567E-04
  -0.5210077E-03
   0.1545085E+01   0.4755283E+01  -0.4545455E+01   0.4987356E-02   0.1690073E+01  -0.5934675E-03   0.4951921E-02  -0.1223048E-03
  -0.2294983E-02
   0.1545085E+01   0.4755283E+01  -0.3636364E+01   0.1346562E-01   0.1583230E+01  -0.1674281E-03   0.1346458E-01  -0.5387405E-03
  -0.1010917E-01
   0.1545085E+01   0.4755283E+01  -0.2727273E+01   0.3860655E-01   0.1489283E+01   0.3143468E-02   0.3847836E-01  -0.2373097E-02
  -0.4452987E-01
   0.1545085E+01   0.4755283E+01  -0.1818182E+01   0.1078248E+00   0.1438279E+01   0.1424690E-01   0.1068795E+00  -0.1045325E-01
  -0.1961495E+00
   0.1545085E+01   0.4755283E+01  -0.9090910E+00   0.2151237E+00   0.1506881E+01   0.1374025E-01   0.2146845E+00  -0.4604550E-01
  -0.8640187E+00
   0.1545085E+01   0.4755283E+01   0.0000000E+00   0.2151237E+00   0.1506881E+01   0.1374025E-01   0.2146845E+00  -0.4604550E-01
  -0.8640187E+00
   0.2242005E+01   0.4400184E+01  -0.1000000E+02   0.2468484E-02   0.2378893E+01  -0.1784648E-02   0.1705416E-02   0.2779849E-06
  -0.1473357E-06
   0.2242005E+01   0.4400184E+01  -0.9090909E+01   0.1837775E-02   0.2409787E+01  -0.1367248E-02   0.1228027E-02   0.1224493E-05
  -0.6489977E-06
   0.2242005E+01   0.4400184E+01  -0.8181818E+01   0.7398986E-03   0.2553996E+01  -0.6157992E-03   0.4101722E-03   0.5393774E-05
  -0.2858773E-05
   0.2242005E+01   0.4400184E+01  -0.7272727E+01   0.7078843E-03  -0.2962856E+01  -0.6966070E-03  -0.1258523E-03   0.2375901E-04
  -0.1259260E-04
   0.2242005E+01   0.4400184E+01  -0.6363636E+01   0.9283265E-03  -0.1878565E+01  -0.2812209E-03  -0.8847060E-03   0.1046561E-03
  -0.5546913E-04
   0.2242005E+01   0.4400184E+01  -0.5454545E+01   0.1519463E-02  -0.2371211E+01  -0.1090435E-02  -0.1058168E-02   0.4609991E-03
  -0.2443357E-03
   0.2242005E+01   0.4400184E+01  -0.4545455E+01   0.3445979E-02  -0.2446176E+01  -0.2645776E-02  -0.2207858E-02   0.2030652E-02
  -0.1076273E-02
   0.2242005E+01   0.4400184E+01  -0.3636364E+01   0.9812576E-02  -0.2808568E+01  -0.9273452E-02  -0.3207761E-02   0.8944819E-02
  -0.4740874E-02
   0.2242005E+01   0.4400184E+01  -0.2727273E+01   0.3341103E-01  -0.2964737E+01  -0.3288988E-01  -0.5878158E-02   0.3940101E-01
  -0.2088306E-01
   0.2242005E+01   0.4400184E+01  -0.1818182E+01   0.1183943E+00  -0.2977138E+01  -0.1167969E+00  -0.1938286E-01   0.1735574E+00
  -0.9198776E-01
   0.2242005E+01   0.4400184E+01  -0.9090910E+00   0.4210072E+00  -0.2873190E+01  -0.4059334E+00  -0.1116475E+00   0.7645028E+00
  -0.4051967E+00
   0.2242005E+01   0.4400184E+01   0.0000000E+00   0.4210072E+00  -0.2873190E+01  -0.4059334E+00  -0.1116475E+00   0.7645028E+00
  -0.4051967E+00
   0.2938926E+01   0.4045085E+01  -0.1000000E+02   0.2468484E-02   0.2378893E+01  -0.1784648E-02   0.1705416E-02   0.2779849E-06
  -0.1473357E-06
   0.2938926E+01   0.4045085E+01  -0.9090909E+01   0.1837775E-02   0.2409787E+01  -0.1367248E-02   0.1228027E-02   0.1224493E-05
  -0.6489977E-06
   0.2938926E+01   0.4045085E+01  -0.8181818E+01   0.7398986E-03   0.2553996E+01  -0.6157992E-03   0.4101722E-03   0.5393774E-05
  -0.2858773E-05
   0.2938926E+01   0.4045085E+01  -0.7272727E+01   0.7078843E-03  -0.2962856E+01  -0.6966070E-03  -0.1258523E-03   0.2375901E-04
  -0.1259260E-04
   0.2938926E+01   0.4045085E+01  -0.6363636E+01   0.9283265E-03  -0.1878565E+01  -0.2812209E-03  -0.8847060E-03   0.1046561E-03
  -0.5546913E-04
   0.2938926E+01   0.4045085E+01  -0.5454545E+01   0.1519463E-02  -0.2371211E+01  -0.1090435E-02  -0.1058168E-02   0.4609991E-03
  -0.2443357E-03
   0.2938926E+01   0.4045085E+01  -0.4545455E+01   0.3445979E-02  -0.2446176E+01  -0.2645776E-02  -0.2207858E-02   0.2030652E-02
  -0.1076273E-02
   0.2938926E+01   0.4045085E+01  -0.3636364E+01   0.9812576E-02  -0.2808568E+01  -0.9273452E-02  -0.3207761E-02   0.8944819E-02
  -0.4740874E-02
   0.2938926E+01   0.4045085E+01  -0.2727273E+01   0.3341103E-01  -0.2964737E+01  -0.3288988E-01  -0.5878158E-02   0.3940101E-01
  -0.2088306E-01
   0.2938926E+01   0.4045085E+01  -0.1818182E+01   0.1183943E+00  -0.2977138E+01  -0.1167969E+00  -0.1938286E-01   0.1735574E+00
  -0.9198776E-01
   0.2938926E+01   0.4045085E+01  -0.9090910E+00   0.4210072E+00  -0.2873190E+01  -0.4059334E+00  -0.1116475E+00   0.7645028E+00
  -0.4051967E+00
   0.2938926E+01   0.4045085E+01   0.0000000E+00   0.4210072E+00  -0.2873190E+01  -0.4059334E+00  -0.1116475E+00   0.7645028E+00
  -0.4051967E+00
   0.0000000E+00   0.5000000E+01  -0.1000000E+02   0.4286467E-02   0.2251081E+01  -0.2696249E-02   0.3332273E-02  -0.6386870E-07
   0.8759685E-07
   0.0000000E+00   0.5000000E+01  -0.9090909E+01   0.3586744E-02   0.2196014E+01  -0.2099227E-02   0.2908260E-02  -0.2813347E-06
   0.3858546E-06
   0.0000000E+00   0.5000000E+01  -0.8181818E+01   0.2462578E-02   0.2168391E+01  -0.1385583E-02   0.2035792E-02  -0.1239252E-05
   0.1699652E-05
   0.0000000E+00   0.5000000E+01  -0.7272727E+01   0.3881023E-02   0.1870417E+01  -0.1145514E-02   0.3708117E-02  -0.5458777E-05
   0.7486792E-05
   0.0000000E+00   0.5000000E+01  -0.6363636E+01   0.3370930E-02   0.1860329E+01  -0.9624144E-03   0.3230624E-02  -0.2404536E-04
   0.3297857E-04
   0.0000000E+00   0.5000000E+01  -0.5454545E+01   0.6781358E-02   0.1672117E+01  -0.6859192E-03   0.6746579E-02  -0.1059173E-03
   0.1452671E-03
   0.0000000E+00   0.5000000E+01  -0.4545455E+01   0.9998407E-02   0.1652644E+01  -0.8174323E-03   0.9964936E-02  -0.4665545E-03
   0.6398863E-03
   0.0000000E+00   0.5000000E+01  -0.3636364E+01   0.1909108E-01   0.1557879E+01   0.2465975E-03   0.1908949E-01  -0.2055126E-02
   0.2818635E-02
   0.0000000E+00   0.5000000E+01  -0.2727273E+01   0.3479720E-01   0.1384723E+01   0.6437541E-02   0.3419654E-01  -0.9052619E-02
   0.1241580E-01
   0.0000000E+00   0.5000000E+01  -0.1818182E+01   0.4527036E-01   0.8714129E+00   0.2914262E-01   0.3464266E-01  -0.3987586E-01
   0.5469033E-01
   0.0000000E+00   0.5000000E+01  -0.9090910E+00   0.2153133E+00  -0.1082183E+01   0.1010685E+00  -0.1901183E+00  -0.1756491E+00
   0.2409053E+00
   0.0000000E+00   0.5000000E+01   0.0000000E+00   0.2153133E+00  -0.1082183E+01   0.1010685E+00  -0.1901183E+00  -0.1756491E+00
   0.2409053E+00
   0.7725425E+00   0.4877642E+01  -0.1000000E+02   0.3922069E-02   0.2271153E+01  -0.2527735E-02   0.2998863E-02  -0.1029331E-06
  -0.3402139E-07
   0.7725425E+00   0.4877642E+01  -0.9090909E+01   0.3227791E-02   0.2217677E+01  -0.1945391E-02   0.2575673E-02  -0.4534093E-06
  -0.1498605E-06
   0.7725425E+00   0.4877642E+01  -0.8181818E+01   0.2106794E-02   0.2202838E+01  -0.1244681E-02   0.1699809E-02  -0.1997224E-05
  -0.6601212E-06
   0.7725425E+00   0.4877642E+01  -0.7272727E+01   0.3257987E-02   0.1844680E+01  -0.8811968E-03   0.3136554E-02  -0.8797565E-05
  -0.2907765E-05
   0.7725425E+00   0.4877642E+01  -0.6363636E+01   0.2671455E-02   0.1842974E+01  -0.7181668E-03   0.2573112E-02  -0.3875239E-04
  -0.1280841E-04
   0.7725425E+00   0.4877642E+01  -0.5454545E+01   0.5862735E-02   0.1587721E+01  -0.9921903E-04   0.5861896E-02  -0.1707002E-03
  -0.5641972E-04
   0.7725425E+00   0.4877642E+01  -0.4545455E+01   0.8405373E-02   0.1519128E+01   0.4340984E-03   0.8394157E-02  -0.7519163E-03
  -0.2485229E-03
   0.7725425E+00   0.4877642E+01  -0.3636364E+01   0.1698908E-01   0.1312209E+01   0.4344363E-02   0.1642423E-01  -0.3312116E-02
  -0.1094718E-02
   0.7725425E+00   0.4877642E+01  -0.2727273E+01   0.3640533E-01   0.9578183E+00   0.2094420E-01   0.2977732E-01  -0.1458953E-01
  -0.4822122E-02
   0.7725425E+00   0.4877642E+01  -0.1818182E+01   0.8443070E-01   0.3378204E+00   0.7965862E-01   0.2798300E-01  -0.6426540E-01
  -0.2124096E-01
   0.7725425E+00   0.4877642E+01  -0.9090910E+00   0.3176423E+00  -0.6794369E+00   0.2471024E+00  -0.1995922E+00  -0.2830825E+00
  -0.9356425E-01
   0.7725425E+00   0.4877642E+01   0.0000000E+00   0.3176423E+00  -0.6794369E+00   0.2471024E+00  -0.1995922E+00  -0.2830825E+00
  -0.9356425E-01
   0.1545085E+01   0.4755283E+01  -0.1000000E+02   0.3922069E-02   0.2271153E+01  -0.2527735E-02   0.2998863E-02  -0.1029331E-06
  -0.3402139E-07
   0.1545085E+01   0.4755283E+01  -0.9090909E+01   0.3227791E-02   0.2217677E+01  -0.1945391E-02   0.2575673E-02  -0.4534093E-06
  -0.1498605E-06
   0.1545085E+01   0.4755283E+01  -0.8181818E+01   0.2106794E-02   0.2202838E+01  -0.1244681E-02   0.1699809E-02  -0.1997224E-05
  -0.6601212E-06
   0.1545085E+01   0.4755283E+01  -0.7272727E+01   0.3257987E-02   0.1844680E+01  -0.8811968E-03   0.3136554E-02  -0.8797565E-05
  -0.2907765E-05
   0.1545085E+01   0.4755283E+01  -0.6363636E+01   0.2671455E-02   0.1842974E+01  -0.7181668E-03   0.2573112E-02  -0.3875239E-04
  -0.1280841E-04
   0.1545085E+01   0.4755283E+01  -0.5454545E+01   0.5862735E-02   0.1587721E+01  -0.9921903E-04   0.5861896E-02  -0.1707002E-03
  -0.5641972E-04
   0.1545085E+01   0.4755283E+01  -0.4545455E+01   0.8405373E-02   0.1519128E+01   0.4340984E-03   0.8394157E-02  -0.7519163E-03
  -0.2485229E-03
   0.1545085E+01   0.4755283E+01  -0.3636364E+01   0.1698908E-01   0.1312209E+01   0.4344363E-02   0.1642423E-01  -0.3312116E-02
  -0.1094718E-02
   0.1545085E+01   0.4755283E+01  -0.2727273E+01   0.3640533E-01   0.9578183E+00   0.2094420E-01   0.2977732E-01  -0.1458953E-01
  -0.4822122E-02
   0.1545085E+01   0.4755283E+01  -0.1818182E+01   0.8443070E-01   0.3378204E+00   0.7965862E-01   0.2798300E-01  -0.6426540E-01
  -0.2124096E-01
   0.1545085E+01   0.4755283E+01  -0.9090910E+00   0.3176423E+00  -0.6794369E+00   0.2471024E+00  -0.1995922E+00  -0.2830825E+00
  -0.9356425E-01
   0.1545085E+01   0.4755283E+01   0.0000000E+00   0.3176423E+00  -0.6794369E+00   0.2471024E+00  -0.1995922E+00  -0.2830825E+00
  -0.9356425E-01
  -0.1545085E+01   0.4755283E+01  -0.1000000E+02   0.4395612E-02   0.2235902E+01  -0.2712718E-02   0.3458694E-02  -0.1029331E-06
   0.3402139E-07
  -0.1545085E+01   0.4755283E+01  -0.9090909E+01   0.3665367E-02   0.2212437E+01  -0.2193762E-02   0.2936379E-02  -0.4534093E-06
   0.1498605E-06
  -0.1545085E+01   0.4755283E+01  -0.8181818E+01   0.2558483E-02   0.2155496E+01  -0.1412153E-02   0.2133462E-02  -0.1997224E-05
   0.6601212E-06
  -0.1545085E+01   0.4755283E+01  -0.7272727E+01   0.3621013E-02   0.2176309E+01  -0.2061020E-02   0.2977235E-02  -0.8797565E-05
   0.2907765E-05
  -0.1545085E+01   0.4755283E+01  -0.6363636E+01   0.3183412E-02   0.2084775E+01  -0.1565111E-02   0.2772100E-02  -0.3875239E-04
   0.1280841E-04
  -0.1545085E+01   0.4755283E+01  -0.5454545E+01   0.5532070E-02   0.2222028E+01  -0.3353354E-02   0.4399865E-02  -0.1707002E-03
   0.5641972E-04
  -0.1545085E+01   0.4755283E+01  -0.4545455E+01   0.9490880E-02   0.1990568E+01  -0.3868023E-02   0.8666903E-02  -0.7519163E-03
   0.2485229E-03
  -0.1545085E+01   0.4755283E+01  -0.3636364E+01   0.2260194E-01   0.1800385E+01  -0.5143682E-02   0.2200887E-01  -0.3312116E-02
   0.1094718E-02
  -0.1545085E+01   0.4755283E+01  -0.2727273E+01   0.6493604E-01   0.1544917E+01   0.1680345E-02   0.6491429E-01  -0.1458953E-01
   0.4822122E-02
  -0.1545085E+01   0.4755283E+01  -0.1818182E+01   0.2190057E+00   0.1275804E+01   0.6367205E-01   0.2095457E+00  -0.6426540E-01
   0.2124096E-01
  -0.1545085E+01   0.4755283E+01  -0.9090910E+00   0.8220947E+00   0.9649602E+00   0.4681415E+00   0.6757835E+00  -0.2830825E+00
   0.9356425E-01
  -0.1545085E+01   0.4755283E+01   0.0000000E+00   0.8220947E+00   0.9649602E+00   0.4681415E+00   0.6757835E+00  -0.2830825E+00
   0.9356425E-01
  -0.7725425E+00   0.4877642E+01  -0.1000000E+02   0.4487507E-02   0.2238392E+01  -0.2778212E-02   0.3524096E-02  -0.6386870E-07
  -0.8759685E-07
  -0.7725425E+00   0.4877642E+01  -0.9090909E+01   0.3753568E-02   0.2198092E+01  -0.2203184E-02   0.3038956E-02  -0.2813347E-06
  -0.3858546E-06
  -0.7725425E+00   0.4877642E+01  -0.8181818E+01   0.2623946E-02   0.2157404E+01  -0.1452457E-02   0.2185283E-02  -0.1239252E-05
  -0.1699652E-05
  -0.7725425E+00   0.4877642E+01  -0.7272727E+01   0.3937646E-02   0.1999791E+01  -0.1637891E-02   0.3580834E-02  -0.5458777E-05
  -0.7486792E-05
  -0.7725425E+00   0.4877642E+01  -0.6363636E+01   0.3544806E-02   0.1954336E+01  -0.1326486E-02   0.3287260E-02  -0.2404536E-04
  -0.3297857E-04
  -0.7725425E+00   0.4877642E+01  -0.5454545E+01   0.6500480E-02   0.1890970E+01  -0.2045903E-02   0.6170132E-02  -0.1059173E-03
  -0.1452671E-03
  -0.7725425E+00   0.4877642E+01  -0.4545455E+01   0.1140602E-01   0.1826170E+01  -0.2881241E-02   0.1103611E-01  -0.4665545E-03
  -0.6398863E-03
  -0.7725425E+00   0.4877642E+01  -0.3636364E+01   0.2701912E-01   0.1757826E+01  -0.5023979E-02   0.2654793E-01  -0.2055126E-02
  -0.2818635E-02
  -0.7725425E+00   0.4877642E+01  -0.2727273E+01   0.7231800E-01   0.1671649E+01  -0.7281098E-02   0.7195053E-01  -0.9052619E-02
  -0.1241580E-01