VARIABLES="X" "Y" "Z" "Module" "Phase" "Real" "Imag" "Re(NVEL)" "Im(NVEL)"
 ZONE "Body",N=        1000 , E=         560  , F=FEPOINT,ET=QUADRILATERAL
   0.4755283E+01   0.1545085E+01  -0.1000000E+02   0.1227207E+00   0.1429090E+01   0.1733216E-01   0.1214906E+00  -0.3722727E-01
  -0.1543764E-01
   0.4755283E+01   0.1545085E+01  -0.9090909E+01   0.1786720E+00   0.1402721E+01   0.2988909E-01   0.1761542E+00  -0.5393180E-01
  -0.2236479E-01
   0.4755283E+01   0.1545085E+01  -0.8181818E+01   0.2611328E+00   0.1403586E+01   0.4346099E-01   0.2574908E+00  -0.7813203E-01
  -0.3240030E-01
   0.4755283E+01   0.1545085E+01  -0.7272727E+01   0.3764923E+00   0.1410302E+01   0.6016569E-01   0.3716538E+00  -0.1131913E+00
  -0.4693889E-01
   0.4755283E+01   0.1545085E+01  -0.6363636E+01   0.5452630E+00   0.1416567E+01   0.8376254E-01   0.5387908E+00  -0.1639823E+00
  -0.6800123E-01
   0.4755283E+01   0.1545085E+01  -0.5454545E+01   0.7903271E+00   0.1422681E+01   0.1166321E+00   0.7816738E+00  -0.2375641E+00
  -0.9851463E-01
   0.4755283E+01   0.1545085E+01  -0.4545455E+01   0.1148200E+01   0.1426400E+01   0.1652202E+00   0.1136250E+01  -0.3441635E+00
  -0.1427200E+00
   0.4755283E+01   0.1545085E+01  -0.3636364E+01   0.1665885E+01   0.1429905E+01   0.2339329E+00   0.1649378E+01  -0.4985960E+00
  -0.2067610E+00
   0.4755283E+01   0.1545085E+01  -0.2727273E+01   0.2419640E+01   0.1432883E+01   0.3326436E+00   0.2396666E+01  -0.7223251E+00
  -0.2995385E+00
   0.4755283E+01   0.1545085E+01  -0.1818182E+01   0.3516820E+01   0.1435806E+01   0.4732954E+00   0.3484827E+01  -0.1046445E+01
  -0.4339468E+00
   0.4755283E+01   0.1545085E+01  -0.9090910E+00   0.5123637E+01   0.1442163E+01   0.6572529E+00   0.5081306E+01  -0.1516005E+01
  -0.6286668E+00
   0.4755283E+01   0.1545085E+01   0.0000000E+00   0.5123637E+01   0.1442163E+01   0.6572529E+00   0.5081306E+01  -0.1516005E+01
  -0.6286668E+00
   0.4877642E+01   0.7725425E+00  -0.1000000E+02   0.1304597E+00   0.1455284E+01   0.1503623E-01   0.1295902E+00  -0.3641106E-01
  -0.1727498E-01
   0.4877642E+01   0.7725425E+00  -0.9090909E+01   0.1911941E+00   0.1429619E+01   0.2690273E-01   0.1892919E+00  -0.5274935E-01
  -0.2502658E-01
   0.4877642E+01   0.7725425E+00  -0.8181818E+01   0.2804055E+00   0.1430310E+01   0.3926368E-01   0.2776429E+00  -0.7641898E-01
  -0.3625647E-01
   0.4877642E+01   0.7725425E+00  -0.7272727E+01   0.4049175E+00   0.1436667E+01   0.5414873E-01   0.4012806E+00  -0.1107096E+00
  -0.5252541E-01
   0.4877642E+01   0.7725425E+00  -0.6363636E+01   0.5871274E+00   0.1442651E+01   0.7503207E-01   0.5823134E+00  -0.1603869E+00
  -0.7609452E-01
   0.4877642E+01   0.7725425E+00  -0.5454545E+01   0.8515367E+00   0.1448421E+01   0.1039469E+00   0.8451685E+00  -0.2323555E+00
  -0.1102395E+00
   0.4877642E+01   0.7725425E+00  -0.4545455E+01   0.1237880E+01   0.1451990E+01   0.1467217E+00   0.1229154E+01  -0.3366177E+00
  -0.1597061E+00
   0.4877642E+01   0.7725425E+00  -0.3636364E+01   0.1796166E+01   0.1455230E+01   0.2071145E+00   0.1784184E+01  -0.4876643E+00
  -0.2313691E+00
   0.4877642E+01   0.7725425E+00  -0.2727273E+01   0.2608637E+01   0.1457953E+01   0.2937438E+00   0.2592046E+01  -0.7064881E+00
  -0.3351886E+00
   0.4877642E+01   0.7725425E+00  -0.1818182E+01   0.3790562E+01   0.1460587E+01   0.4169108E+00   0.3767565E+01  -0.1023502E+01
  -0.4855938E+00
   0.4877642E+01   0.7725425E+00  -0.9090910E+00   0.5517141E+01   0.1466047E+01   0.5768618E+00   0.5486900E+01  -0.1482767E+01
  -0.7034888E+00
   0.4877642E+01   0.7725425E+00   0.0000000E+00   0.5517141E+01   0.1466047E+01   0.5768618E+00   0.5486900E+01  -0.1482767E+01
  -0.7034888E+00
   0.5000000E+01   0.0000000E+00  -0.1000000E+02   0.1304597E+00   0.1455284E+01   0.1503623E-01   0.1295902E+00  -0.3641106E-01
  -0.1727498E-01
   0.5000000E+01   0.0000000E+00  -0.9090909E+01   0.1911941E+00   0.1429619E+01   0.2690273E-01   0.1892919E+00  -0.5274935E-01
  -0.2502658E-01
   0.5000000E+01   0.0000000E+00  -0.8181818E+01   0.2804055E+00   0.1430310E+01   0.3926368E-01   0.2776429E+00  -0.7641898E-01
  -0.3625647E-01
   0.5000000E+01   0.0000000E+00  -0.7272727E+01   0.4049175E+00   0.1436667E+01   0.5414873E-01   0.4012806E+00  -0.1107096E+00
  -0.5252541E-01
   0.5000000E+01   0.0000000E+00  -0.6363636E+01   0.5871274E+00   0.1442651E+01   0.7503207E-01   0.5823134E+00  -0.1603869E+00
  -0.7609452E-01
   0.5000000E+01   0.0000000E+00  -0.5454545E+01   0.8515367E+00   0.1448421E+01   0.1039469E+00   0.8451685E+00  -0.2323555E+00
  -0.1102395E+00
   0.5000000E+01   0.0000000E+00  -0.4545455E+01   0.1237880E+01   0.1451990E+01   0.1467217E+00   0.1229154E+01  -0.3366177E+00
  -0.1597061E+00
   0.5000000E+01   0.0000000E+00  -0.3636364E+01   0.1796166E+01   0.1455230E+01   0.2071145E+00   0.1784184E+01  -0.4876643E+00
  -0.2313691E+00
   0.5000000E+01   0.0000000E+00  -0.2727273E+01   0.2608637E+01   0.1457953E+01   0.2937438E+00   0.2592046E+01  -0.7064881E+00
  -0.3351886E+00
   0.5000000E+01   0.0000000E+00  -0.1818182E+01   0.3790562E+01   0.1460587E+01   0.4169108E+00   0.3767565E+01  -0.1023502E+01
  -0.4855938E+00
   0.5000000E+01   0.0000000E+00  -0.9090910E+00   0.5517141E+01   0.1466047E+01   0.5768618E+00   0.5486900E+01  -0.1482767E+01
  -0.7034888E+00
   0.5000000E+01   0.0000000E+00   0.0000000E+00   0.5517141E+01   0.1466047E+01   0.5768618E+00   0.5486900E+01  -0.1482767E+01
  -0.7034888E+00
   0.4045085E+01   0.2938926E+01  -0.1000000E+02   0.8767442E-01   0.1293504E+01   0.2400110E-01   0.8432528E-01  -0.3594274E-01
  -0.5467912E-02
   0.4045085E+01   0.2938926E+01  -0.9090909E+01   0.1216132E+00   0.1261061E+01   0.3706845E-01   0.1158262E+00  -0.5207090E-01
  -0.7921461E-02
   0.4045085E+01   0.2938926E+01  -0.8181818E+01   0.1734497E+00   0.1261197E+01   0.5284622E-01   0.1652032E+00  -0.7543609E-01
  -0.1147597E-01
   0.4045085E+01   0.2938926E+01  -0.7272727E+01   0.2472009E+00   0.1269556E+01   0.7334574E-01   0.2360693E+00  -0.1092856E+00
  -0.1662545E-01
   0.4045085E+01   0.2938926E+01  -0.6363636E+01   0.3549403E+00   0.1277059E+01   0.1027663E+00   0.3397377E+00  -0.1583241E+00
  -0.2408559E-01
   0.4045085E+01   0.2938926E+01  -0.5454545E+01   0.5121124E+00   0.1285170E+01   0.1442922E+00   0.4913643E+00  -0.2293670E+00
  -0.3489323E-01
   0.4045085E+01   0.2938926E+01  -0.4545455E+01   0.7407727E+00   0.1289545E+01   0.2056075E+00   0.7116668E+00  -0.3322882E+00
  -0.5055047E-01
   0.4045085E+01   0.2938926E+01  -0.3636364E+01   0.1074047E+01   0.1294821E+01   0.2926626E+00   0.1033405E+01  -0.4813920E+00
  -0.7323340E-01
   0.4045085E+01   0.2938926E+01  -0.2727273E+01   0.1561051E+01   0.1299637E+01   0.4181258E+00   0.1504012E+01  -0.6974014E+00
  -0.1060946E+00
   0.4045085E+01   0.2938926E+01  -0.1818182E+01   0.2273321E+01   0.1304745E+01   0.5977101E+00   0.2193338E+01  -0.1010338E+01
  -0.1537011E+00
   0.4045085E+01   0.2938926E+01  -0.9090910E+00   0.3339250E+01   0.1317847E+01   0.8356826E+00   0.3232991E+01  -0.1463696E+01
  -0.2226696E+00
   0.4045085E+01   0.2938926E+01   0.0000000E+00   0.3339250E+01   0.1317847E+01   0.8356826E+00   0.3232991E+01  -0.1463696E+01
  -0.2226696E+00
   0.4400184E+01   0.2242005E+01  -0.1000000E+02   0.1065461E+00   0.1378531E+01   0.2035919E-01   0.1045829E+00  -0.3477769E-01
  -0.1059671E-01
   0.4400184E+01   0.2242005E+01  -0.9090909E+01   0.1520739E+00   0.1350397E+01   0.3324623E-01   0.1483953E+00  -0.5038306E-01
  -0.1535164E-01
   0.4400184E+01   0.2242005E+01  -0.8181818E+01   0.2202901E+00   0.1351382E+01   0.4794785E-01   0.2150087E+00  -0.7299089E-01
  -0.2224021E-01
   0.4400184E+01   0.2242005E+01  -0.7272727E+01   0.3162917E+00   0.1358946E+01   0.6650646E-01   0.3092205E+00  -0.1057432E+00
  -0.3221979E-01
   0.4400184E+01   0.2242005E+01  -0.6363636E+01   0.4566973E+00   0.1365856E+01   0.9294208E-01   0.4471400E+00  -0.1531921E+00
  -0.4667740E-01
   0.4400184E+01   0.2242005E+01  -0.5454545E+01   0.6609213E+00   0.1372799E+01   0.1300074E+00   0.6480086E+00  -0.2219323E+00
  -0.6762242E-01
   0.4400184E+01   0.2242005E+01  -0.4545455E+01   0.9587840E+00   0.1376838E+01   0.1848005E+00   0.9408058E+00  -0.3215174E+00
  -0.9796583E-01
   0.4400184E+01   0.2242005E+01  -0.3636364E+01   0.1390830E+01   0.1380990E+01   0.2624063E+00   0.1365851E+01  -0.4657881E+00
  -0.1419249E+00
   0.4400184E+01   0.2242005E+01  -0.2727273E+01   0.2020741E+01   0.1384611E+01   0.3740622E+00   0.1985818E+01  -0.6747957E+00
  -0.2056092E+00
   0.4400184E+01   0.2242005E+01  -0.1818182E+01   0.2939376E+01   0.1388273E+01   0.5335310E+00   0.2890549E+01  -0.9775889E+00
  -0.2978698E+00
   0.4400184E+01   0.2242005E+01  -0.9090910E+00   0.4297716E+01   0.1396834E+01   0.7438746E+00   0.4232850E+01  -0.1416251E+01
  -0.4315294E+00
   0.4400184E+01   0.2242005E+01   0.0000000E+00   0.4297716E+01   0.1396834E+01   0.7438746E+00   0.4232850E+01  -0.1416251E+01
  -0.4315294E+00
   0.4755283E+01   0.1545085E+01  -0.1000000E+02   0.1065461E+00   0.1378531E+01   0.2035919E-01   0.1045829E+00  -0.3477769E-01
  -0.1059671E-01
   0.4755283E+01   0.1545085E+01  -0.9090909E+01   0.1520739E+00   0.1350397E+01   0.3324623E-01   0.1483953E+00  -0.5038306E-01
  -0.1535164E-01
   0.4755283E+01   0.1545085E+01  -0.8181818E+01   0.2202901E+00   0.1351382E+01   0.4794785E-01   0.2150087E+00  -0.7299089E-01
  -0.2224021E-01
   0.4755283E+01   0.1545085E+01  -0.7272727E+01   0.3162917E+00   0.1358946E+01   0.6650646E-01   0.3092205E+00  -0.1057432E+00
  -0.3221979E-01
   0.4755283E+01   0.1545085E+01  -0.6363636E+01   0.4566973E+00   0.1365856E+01   0.9294208E-01   0.4471400E+00  -0.1531921E+00
  -0.4667740E-01
   0.4755283E+01   0.1545085E+01  -0.5454545E+01   0.6609213E+00   0.1372799E+01   0.1300074E+00   0.6480086E+00  -0.2219323E+00
  -0.6762242E-01
   0.4755283E+01   0.1545085E+01  -0.4545455E+01   0.9587840E+00   0.1376838E+01   0.1848005E+00   0.9408058E+00  -0.3215174E+00
  -0.9796583E-01
   0.4755283E+01   0.1545085E+01  -0.3636364E+01   0.1390830E+01   0.1380990E+01   0.2624063E+00   0.1365851E+01  -0.4657881E+00
  -0.1419249E+00
   0.4755283E+01   0.1545085E+01  -0.2727273E+01   0.2020741E+01   0.1384611E+01   0.3740622E+00   0.1985818E+01  -0.6747957E+00
  -0.2056092E+00
   0.4755283E+01   0.1545085E+01  -0.1818182E+01   0.2939376E+01   0.1388273E+01   0.5335310E+00   0.2890549E+01  -0.9775889E+00
  -0.2978698E+00
   0.4755283E+01   0.1545085E+01  -0.9090910E+00   0.4297716E+01   0.1396834E+01   0.7438746E+00   0.4232850E+01  -0.1416251E+01
  -0.4315294E+00
   0.4755283E+01   0.1545085E+01   0.0000000E+00   0.4297716E+01   0.1396834E+01   0.7438746E+00   0.4232850E+01  -0.1416251E+01
  -0.4315294E+00
   0.2938926E+01   0.4045085E+01  -0.1000000E+02   0.4444141E-01   0.1020824E+01   0.2322791E-01   0.3788804E-01  -0.2788501E-01
   0.7409032E-02
   0.2938926E+01   0.4045085E+01  -0.9090909E+01   0.5154459E-01   0.9495436E+00   0.3000175E-01   0.4191348E-01  -0.4039751E-01
   0.1073360E-01
   0.2938926E+01   0.4045085E+01  -0.8181818E+01   0.6621709E-01   0.9225763E+00   0.3997979E-01   0.5278559E-01  -0.5852463E-01
   0.1554996E-01
   0.2938926E+01   0.4045085E+01  -0.7272727E+01   0.8921274E-01   0.9241729E+00   0.5375022E-01   0.7120272E-01  -0.8478570E-01
   0.2252751E-01
   0.2938926E+01   0.4045085E+01  -0.6363636E+01   0.1225957E+00   0.9250172E+00   0.7378066E-01   0.9790874E-01  -0.1228306E+00
   0.3263602E-01
   0.2938926E+01   0.4045085E+01  -0.5454545E+01   0.1723996E+00   0.9355286E+00   0.1023007E+00   0.1387667E+00  -0.1779469E+00
   0.4728040E-01
   0.2938926E+01   0.4045085E+01  -0.4545455E+01   0.2435983E+00   0.9361441E+00   0.1444288E+00   0.1961643E+00  -0.2577950E+00
   0.6849600E-01
   0.2938926E+01   0.4045085E+01  -0.3636364E+01   0.3512802E+00   0.9490675E+00   0.2046001E+00   0.2855461E+00  -0.3734723E+00
   0.9923140E-01
   0.2938926E+01   0.4045085E+01  -0.2727273E+01   0.5114602E+00   0.9641808E+00   0.2915784E+00   0.4202066E+00  -0.5410562E+00
   0.1437583E+00
   0.2938926E+01   0.4045085E+01  -0.1818182E+01   0.7512050E+00   0.9832544E+00   0.4164056E+00   0.6252322E+00  -0.7838379E+00
   0.2082653E+00
   0.2938926E+01   0.4045085E+01  -0.9090910E+00   0.1147731E+01   0.1039377E+01   0.5816209E+00   0.9894461E+00  -0.1135560E+01
   0.3017178E+00
   0.2938926E+01   0.4045085E+01   0.0000000E+00   0.1147731E+01   0.1039377E+01   0.5816209E+00   0.9894461E+00  -0.1135560E+01
   0.3017178E+00
   0.3492005E+01   0.3492005E+01  -0.1000000E+02   0.6427983E-01   0.1186218E+01   0.2411577E-01   0.5958461E-01  -0.2883564E-01
   0.9860621E-03
   0.3492005E+01   0.3492005E+01  -0.9090909E+01   0.8325933E-01   0.1145755E+01   0.3433267E-01   0.7585106E-01  -0.4177471E-01
   0.1428526E-02
   0.3492005E+01   0.3492005E+01  -0.8181818E+01   0.1146734E+00   0.1141741E+01   0.4770547E-01   0.1042793E+00  -0.6051981E-01
   0.2069532E-02
   0.3492005E+01   0.3492005E+01  -0.7272727E+01   0.1606004E+00   0.1150964E+01   0.6546193E-01   0.1466534E+00  -0.8767615E-01
   0.2998169E-02
   0.3492005E+01   0.3492005E+01  -0.6363636E+01   0.2275936E+00   0.1158902E+01   0.9111615E-01   0.2085586E+00  -0.1270180E+00
   0.4343501E-02
   0.3492005E+01   0.3492005E+01  -0.5454545E+01   0.3260362E+00   0.1169172E+01   0.1274522E+00   0.3000925E+00  -0.1840134E+00
   0.6292511E-02
   0.3492005E+01   0.3492005E+01  -0.4545455E+01   0.4684956E+00   0.1173718E+01   0.1811792E+00   0.4320443E+00  -0.2665836E+00
   0.9116077E-02
   0.3492005E+01   0.3492005E+01  -0.3636364E+01   0.6785537E+00   0.1181460E+01   0.2575620E+00   0.6277714E+00  -0.3862045E+00
   0.1320663E-01
   0.3492005E+01   0.3492005E+01  -0.2727273E+01   0.9872808E+00   0.1189082E+01   0.3677739E+00   0.9162237E+00  -0.5595014E+00
   0.1913268E-01
   0.3492005E+01   0.3492005E+01  -0.1818182E+01   0.1442320E+01   0.1197684E+01   0.5257480E+00   0.1343084E+01  -0.8105599E+00
   0.2771786E-01
   0.3492005E+01   0.3492005E+01  -0.9090910E+00   0.2148956E+01   0.1221101E+01   0.7362581E+00   0.2018895E+01  -0.1174273E+01
   0.4015538E-01
   0.3492005E+01   0.3492005E+01   0.0000000E+00   0.2148956E+01   0.1221101E+01   0.7362581E+00   0.2018895E+01  -0.1174273E+01
   0.4015538E-01
   0.4045085E+01   0.2938926E+01  -0.1000000E+02   0.6427983E-01   0.1186218E+01   0.2411577E-01   0.5958461E-01  -0.2883564E-01
   0.9860621E-03
   0.4045085E+01   0.2938926E+01  -0.9090909E+01   0.8325933E-01   0.1145755E+01   0.3433267E-01   0.7585106E-01  -0.4177471E-01
   0.1428526E-02
   0.4045085E+01   0.2938926E+01  -0.8181818E+01   0.1146734E+00   0.1141741E+01   0.4770547E-01   0.1042793E+00  -0.6051981E-01
   0.2069532E-02
   0.4045085E+01   0.2938926E+01  -0.7272727E+01   0.1606004E+00   0.1150964E+01   0.6546193E-01   0.1466534E+00  -0.8767615E-01
   0.2998169E-02
   0.4045085E+01   0.2938926E+01  -0.6363636E+01   0.2275936E+00   0.1158902E+01   0.9111615E-01   0.2085586E+00  -0.1270180E+00
   0.4343501E-02
   0.4045085E+01   0.2938926E+01  -0.5454545E+01   0.3260362E+00   0.1169172E+01   0.1274522E+00   0.3000925E+00  -0.1840134E+00
   0.6292511E-02
   0.4045085E+01   0.2938926E+01  -0.4545455E+01   0.4684956E+00   0.1173718E+01   0.1811792E+00   0.4320443E+00  -0.2665836E+00
   0.9116077E-02
   0.4045085E+01   0.2938926E+01  -0.3636364E+01   0.6785537E+00   0.1181460E+01   0.2575620E+00   0.6277714E+00  -0.3862045E+00
   0.1320663E-01
   0.4045085E+01   0.2938926E+01  -0.2727273E+01   0.9872808E+00   0.1189082E+01   0.3677739E+00   0.9162237E+00  -0.5595014E+00
   0.1913268E-01
   0.4045085E+01   0.2938926E+01  -0.1818182E+01   0.1442320E+01   0.1197684E+01   0.5257480E+00   0.1343084E+01  -0.8105599E+00
   0.2771786E-01
   0.4045085E+01   0.2938926E+01  -0.9090910E+00   0.2148956E+01   0.1221101E+01   0.7362581E+00   0.2018895E+01  -0.1174273E+01
   0.4015538E-01
   0.4045085E+01   0.2938926E+01   0.0000000E+00   0.2148956E+01   0.1221101E+01   0.7362581E+00   0.2018895E+01  -0.1174273E+01
   0.4015538E-01
   0.1545085E+01   0.4755283E+01  -0.1000000E+02   0.1305695E-01   0.6773540E+00   0.1017442E-01   0.8183228E-02  -0.1292327E-01
   0.1327196E-01
   0.1545085E+01   0.4755283E+01  -0.9090909E+01   0.3309803E-02  -0.5706850E+00   0.2785302E-02  -0.1787984E-02  -0.1872217E-01
   0.1922733E-01
   0.1545085E+01   0.4755283E+01  -0.8181818E+01   0.1286559E-01  -0.1826767E+01  -0.3257369E-02  -0.1244640E-01  -0.2712317E-01
   0.2785500E-01
   0.1545085E+01   0.4755283E+01  -0.7272727E+01   0.2598939E-01  -0.1974598E+01  -0.1021167E-01  -0.2389917E-01  -0.3929383E-01
   0.4035404E-01
   0.1545085E+01   0.4755283E+01  -0.6363636E+01   0.4588442E-01  -0.2021853E+01  -0.2000180E-01  -0.4129538E-01  -0.5692568E-01
   0.5846163E-01
   0.1545085E+01   0.4755283E+01  -0.5454545E+01   0.7253639E-01  -0.2055635E+01  -0.3380670E-01  -0.6417660E-01  -0.8246928E-01
   0.8469445E-01
   0.1545085E+01   0.4755283E+01  -0.4545455E+01   0.1140443E+00  -0.2064224E+01  -0.5401681E-01  -0.1004405E+00  -0.1194748E+00
   0.1226984E+00
   0.1545085E+01   0.4755283E+01  -0.3636364E+01   0.1666491E+00  -0.2085979E+01  -0.8210692E-01  -0.1450185E+00  -0.1730853E+00
   0.1777554E+00
   0.1545085E+01   0.4755283E+01  -0.2727273E+01   0.2379975E+00  -0.2110507E+01  -0.1223041E+00  -0.2041678E+00  -0.2507518E+00
   0.2575175E+00
   0.1545085E+01   0.4755283E+01  -0.1818182E+01   0.3317572E+00  -0.2143719E+01  -0.1798425E+00  -0.2787822E+00  -0.3632687E+00
   0.3730703E+00
   0.1545085E+01   0.4755283E+01  -0.9090910E+00   0.4023595E+00  -0.2274069E+01  -0.2602127E+00  -0.3068917E+00  -0.5262741E+00
   0.5404738E+00
   0.1545085E+01   0.4755283E+01   0.0000000E+00   0.4023595E+00  -0.2274069E+01  -0.2602127E+00  -0.3068917E+00  -0.5262741E+00
   0.5404738E+00
   0.2242005E+01   0.4400184E+01  -0.1000000E+02   0.2552104E-01   0.8749364E+00   0.1636015E-01   0.1958747E-01  -0.1612587E-01
   0.9116539E-02
   0.2242005E+01   0.4400184E+01  -0.9090909E+01   0.2081408E-01   0.7377777E+00   0.1540169E-01   0.1400049E-01  -0.2336184E-01
   0.1320729E-01
   0.2242005E+01   0.4400184E+01  -0.8181818E+01   0.1998231E-01   0.5677220E+00   0.1684764E-01   0.1074474E-01  -0.3384474E-01
   0.1913366E-01
   0.2242005E+01   0.4400184E+01  -0.7272727E+01   0.2183413E-01   0.4621238E+00   0.1954390E-01   0.9734752E-02  -0.4903148E-01
   0.2771927E-01
   0.2242005E+01   0.4400184E+01  -0.6363636E+01   0.2494098E-01   0.3194416E+00   0.2367924E-01   0.7832377E-02  -0.7103280E-01
   0.4015741E-01
   0.2242005E+01   0.4400184E+01  -0.5454545E+01   0.3053868E-01   0.2454156E+00   0.2962363E-01   0.7419662E-02  -0.1029065E+00
   0.5817679E-01
   0.2242005E+01   0.4400184E+01  -0.4545455E+01   0.3881162E-01   0.1067846E+00   0.3859055E-01   0.4136612E-02  -0.1490826E+00
   0.8428179E-01
   0.2242005E+01   0.4400184E+01  -0.3636364E+01   0.5216916E-01   0.1317540E+00   0.5171701E-01   0.6853627E-02  -0.2159787E+00
   0.1221006E+00
   0.2242005E+01   0.4400184E+01  -0.2727273E+01   0.7273750E-01   0.2243598E+00   0.7091446E-01   0.1618280E-01  -0.3128922E+00
   0.1768893E+00
   0.2242005E+01   0.4400184E+01  -0.1818182E+01   0.1065946E+00   0.3895749E+00   0.9860749E-01   0.4048410E-01  -0.4532927E+00
   0.2562628E+00
   0.2242005E+01   0.4400184E+01  -0.9090910E+00   0.2034159E+00   0.8466677E+00   0.1347595E+00   0.1523741E+00  -0.6566935E+00
   0.3712526E+00
   0.2242005E+01   0.4400184E+01   0.0000000E+00   0.2034159E+00   0.8466677E+00   0.1347595E+00   0.1523741E+00  -0.6566935E+00
   0.3712526E+00
   0.2938926E+01   0.4045085E+01  -0.1000000E+02   0.2552104E-01   0.8749364E+00   0.1636015E-01   0.1958747E-01  -0.1612587E-01
   0.9116539E-02
   0.2938926E+01   0.4045085E+01  -0.9090909E+01   0.2081408E-01   0.7377777E+00   0.1540169E-01   0.1400049E-01  -0.2336184E-01
   0.1320729E-01
   0.2938926E+01   0.4045085E+01  -0.8181818E+01   0.1998231E-01   0.5677220E+00   0.1684764E-01   0.1074474E-01  -0.3384474E-01
   0.1913366E-01
   0.2938926E+01   0.4045085E+01  -0.7272727E+01   0.2183413E-01   0.4621238E+00   0.1954390E-01   0.9734752E-02  -0.4903148E-01
   0.2771927E-01
   0.2938926E+01   0.4045085E+01  -0.6363636E+01   0.2494098E-01   0.3194416E+00   0.2367924E-01   0.7832377E-02  -0.7103280E-01
   0.4015741E-01
   0.2938926E+01   0.4045085E+01  -0.5454545E+01   0.3053868E-01   0.2454156E+00   0.2962363E-01   0.7419662E-02  -0.1029065E+00
   0.5817679E-01
   0.2938926E+01   0.4045085E+01  -0.4545455E+01   0.3881162E-01   0.1067846E+00   0.3859055E-01   0.4136612E-02  -0.1490826E+00
   0.8428179E-01
   0.2938926E+01   0.4045085E+01  -0.3636364E+01   0.5216916E-01   0.1317540E+00   0.5171701E-01   0.6853627E-02  -0.2159787E+00
   0.1221006E+00
   0.2938926E+01   0.4045085E+01  -0.2727273E+01   0.7273750E-01   0.2243598E+00   0.7091446E-01   0.1618280E-01  -0.3128922E+00
   0.1768893E+00
   0.2938926E+01   0.4045085E+01  -0.1818182E+01   0.1065946E+00   0.3895749E+00   0.9860749E-01   0.4048410E-01  -0.4532927E+00
   0.2562628E+00
   0.2938926E+01   0.4045085E+01  -0.9090910E+00   0.2034159E+00   0.8466677E+00   0.1347595E+00   0.1523741E+00  -0.6566935E+00
   0.3712526E+00
   0.2938926E+01   0.4045085E+01   0.0000000E+00   0.2034159E+00   0.8466677E+00   0.1347595E+00   0.1523741E+00  -0.6566935E+00
   0.3712526E+00
   0.0000000E+00   0.5000000E+01  -0.1000000E+02   0.9776626E-02   0.1976826E+01  -0.3861424E-02   0.8981749E-02  -0.1001189E-02
   0.6304063E-02
   0.0000000E+00   0.5000000E+01  -0.9090909E+01   0.2444868E-01   0.2847063E+01  -0.2339589E-01   0.7097211E-02  -0.1450440E-02
   0.9132808E-02
   0.0000000E+00   0.5000000E+01  -0.8181818E+01   0.4413276E-01   0.3060313E+01  -0.4398706E-01   0.3583148E-02  -0.2101280E-02
   0.1323087E-01
   0.0000000E+00   0.5000000E+01  -0.7272727E+01   0.7020263E-01   0.3129583E+01  -0.7019757E-01   0.8431205E-03  -0.3044162E-02
   0.1916780E-01
   0.0000000E+00   0.5000000E+01  -0.6363636E+01   0.1079539E+00  -0.3100863E+01  -0.1078644E+00  -0.4395726E-02  -0.4410132E-02
   0.2776874E-01
   0.0000000E+00   0.5000000E+01  -0.5454545E+01   0.1617506E+00  -0.3077800E+01  -0.1614216E+00  -0.1031147E-01  -0.6389040E-02
   0.4022910E-01
   0.0000000E+00   0.5000000E+01  -0.4545455E+01   0.2411233E+00  -0.3051975E+01  -0.2401557E+00  -0.2157989E-01  -0.9255921E-02
   0.5828063E-01
   0.0000000E+00   0.5000000E+01  -0.3636364E+01   0.3527205E+00  -0.3053031E+01  -0.3513382E+00  -0.3119682E-01  -0.1340922E-01
   0.8443221E-01
   0.0000000E+00   0.5000000E+01  -0.2727273E+01   0.5129346E+00  -0.3063405E+01  -0.5113675E+00  -0.4006431E-01  -0.1942618E-01
   0.1223185E+00
   0.0000000E+00   0.5000000E+01  -0.1818182E+01   0.7421131E+00  -0.3083985E+01  -0.7408820E+00  -0.4272798E-01  -0.2814307E-01
   0.1772050E+00
   0.0000000E+00   0.5000000E+01  -0.9090910E+00   0.1053178E+01   0.3119868E+01  -0.1052930E+01   0.2287869E-01  -0.4077138E-01
   0.2567202E+00
   0.0000000E+00   0.5000000E+01   0.0000000E+00   0.1053178E+01   0.3119868E+01  -0.1052930E+01   0.2287869E-01  -0.4077138E-01
   0.2567202E+00
   0.7725425E+00   0.4877642E+01  -0.1000000E+02   0.6416973E-02   0.1397584E+01   0.1105950E-02   0.6320951E-02  -0.2905052E-02
   0.5683711E-02
   0.7725425E+00   0.4877642E+01  -0.9090909E+01   0.1437486E-01  -0.3070462E+01  -0.1433851E-01  -0.1021631E-02  -0.4208600E-02
   0.8234094E-02
   0.7725425E+00   0.4877642E+01  -0.8181818E+01   0.3155216E-01  -0.2811256E+01  -0.2984623E-01  -0.1023431E-01  -0.6097078E-02
   0.1192889E-01
   0.7725425E+00   0.4877642E+01  -0.7272727E+01   0.5330390E-01  -0.2754207E+01  -0.4935408E-01  -0.2013656E-01  -0.8832948E-02
   0.1728159E-01
   0.7725425E+00   0.4877642E+01  -0.6363636E+01   0.8508927E-01  -0.2710046E+01  -0.7728829E-01  -0.3559079E-01  -0.1279645E-01
   0.2503616E-01
   0.7725425E+00   0.4877642E+01  -0.5454545E+01   0.1296556E+00  -0.2695702E+01  -0.1169788E+00  -0.5591547E-01  -0.1853846E-01
   0.3627035E-01
   0.7725425E+00   0.4877642E+01  -0.4545455E+01   0.1963059E+00  -0.2674041E+01  -0.1752373E+00  -0.8847556E-01  -0.2685700E-01
   0.5254552E-01
   0.7725425E+00   0.4877642E+01  -0.3636364E+01   0.2874751E+00  -0.2680055E+01  -0.2573962E+00  -0.1280199E+00  -0.3890823E-01
   0.7612365E-01
   0.7725425E+00   0.4877642E+01  -0.2727273E+01   0.4164846E+00  -0.2694616E+01  -0.3755683E+00  -0.1800219E+00  -0.5636706E-01
   0.1102817E+00
   0.7725425E+00   0.4877642E+01  -0.1818182E+01   0.5973862E+00  -0.2719633E+01  -0.5449885E+00  -0.2446587E+00  -0.8165999E-01
   0.1597672E+00
   0.7725425E+00   0.4877642E+01  -0.9090910E+00   0.8186478E+00  -0.2813167E+01  -0.7748921E+00  -0.2640576E+00  -0.1183023E+00
   0.2314576E+00
   0.7725425E+00   0.4877642E+01   0.0000000E+00   0.8186478E+00  -0.2813167E+01  -0.7748921E+00  -0.2640576E+00  -0.1183023E+00
   0.2314576E+00
   0.1545085E+01   0.4755283E+01  -0.1000000E+02   0.6416973E-02   0.1397584E+01   0.1105950E-02   0.6320951E-02  -0.2905052E-02
   0.5683711E-02
   0.1545085E+01   0.4755283E+01  -0.9090909E+01   0.1437486E-01  -0.3070462E+01  -0.1433851E-01  -0.1021631E-02  -0.4208600E-02
   0.8234094E-02
   0.1545085E+01   0.4755283E+01  -0.8181818E+01   0.3155216E-01  -0.2811256E+01  -0.2984623E-01  -0.1023431E-01  -0.6097078E-02
   0.1192889E-01
   0.1545085E+01   0.4755283E+01  -0.7272727E+01   0.5330390E-01  -0.2754207E+01  -0.4935408E-01  -0.2013656E-01  -0.8832948E-02
   0.1728159E-01
   0.1545085E+01   0.4755283E+01  -0.6363636E+01   0.8508927E-01  -0.2710046E+01  -0.7728829E-01  -0.3559079E-01  -0.1279645E-01
   0.2503616E-01
   0.1545085E+01   0.4755283E+01  -0.5454545E+01   0.1296556E+00  -0.2695702E+01  -0.1169788E+00  -0.5591547E-01  -0.1853846E-01
   0.3627035E-01
   0.1545085E+01   0.4755283E+01  -0.4545455E+01   0.1963059E+00  -0.2674041E+01  -0.1752373E+00  -0.8847556E-01  -0.2685700E-01
   0.5254552E-01
   0.1545085E+01   0.4755283E+01  -0.3636364E+01   0.2874751E+00  -0.2680055E+01  -0.2573962E+00  -0.1280199E+00  -0.3890823E-01
   0.7612365E-01
   0.1545085E+01   0.4755283E+01  -0.2727273E+01   0.4164846E+00  -0.2694616E+01  -0.3755683E+00  -0.1800219E+00  -0.5636706E-01
   0.1102817E+00
   0.1545085E+01   0.4755283E+01  -0.1818182E+01   0.5973862E+00  -0.2719633E+01  -0.5449885E+00  -0.2446587E+00  -0.8165999E-01
   0.1597672E+00
   0.1545085E+01   0.4755283E+01  -0.9090910E+00   0.8186478E+00  -0.2813167E+01  -0.7748921E+00  -0.2640576E+00  -0.1183023E+00
   0.2314576E+00
   0.1545085E+01   0.4755283E+01   0.0000000E+00   0.8186478E+00  -0.2813167E+01  -0.7748921E+00  -0.2640576E+00  -0.1183023E+00
   0.2314576E+00
  -0.1545085E+01   0.4755283E+01  -0.1000000E+02   0.2994039E-01   0.1681316E+01  -0.3302278E-02   0.2975773E-01  -0.2905052E-02
  -0.5683711E-02
  -0.1545085E+01   0.4755283E+01  -0.9090909E+01   0.5367476E-01   0.1979583E+01  -0.2133552E-01   0.4925217E-01  -0.4208600E-02
  -0.8234094E-02
  -0.1545085E+01   0.4755283E+01  -0.8181818E+01   0.8182487E-01   0.2089104E+01  -0.4053692E-01   0.7107790E-01  -0.6097078E-02
  -0.1192889E-01
  -0.1545085E+01   0.4755283E+01  -0.7272727E+01   0.1207453E+00   0.2139725E+01  -0.6504912E-01   0.1017253E+00  -0.8832948E-02
  -0.1728159E-01
  -0.1545085E+01   0.4755283E+01  -0.6363636E+01   0.1760959E+00   0.2176943E+01  -0.1003226E+00   0.1447243E+00  -0.1279645E-01
  -0.2503616E-01
  -0.1545085E+01   0.4755283E+01  -0.5454545E+01   0.2564977E+00   0.2197865E+01  -0.1505061E+00   0.2076993E+00  -0.1853846E-01
  -0.3627035E-01
  -0.1545085E+01   0.4755283E+01  -0.4545455E+01   0.3726731E+00   0.2216648E+01  -0.2243041E+00   0.2976120E+00  -0.2685700E-01
  -0.5254552E-01
  -0.1545085E+01   0.4755283E+01  -0.3636364E+01   0.5426164E+00   0.2221428E+01  -0.3286567E+00   0.4317607E+00  -0.3890823E-01
  -0.7612365E-01
  -0.1545085E+01   0.4755283E+01  -0.2727273E+01   0.7916806E+00   0.2220268E+01  -0.4787812E+00   0.6304972E+00  -0.5636706E-01
  -0.1102817E+00
  -0.1545085E+01   0.4755283E+01  -0.1818182E+01   0.1157647E+01   0.2213500E+01  -0.6938488E+00   0.9266712E+00  -0.8165999E-01
  -0.1597672E+00
  -0.1545085E+01   0.4755283E+01  -0.9090910E+00   0.1714533E+01   0.2182782E+01  -0.9849886E+00   0.1403360E+01  -0.1183023E+00
  -0.2314576E+00
  -0.1545085E+01   0.4755283E+01   0.0000000E+00   0.1714533E+01   0.2182782E+01  -0.9849886E+00   0.1403360E+01  -0.1183023E+00
  -0.2314576E+00
  -0.7725425E+00   0.4877642E+01  -0.1000000E+02   0.2116398E-01   0.1841145E+01  -0.5652213E-02   0.2039525E-01  -0.1001189E-02
  -0.6304063E-02
  -0.7725425E+00   0.4877642E+01  -0.9090909E+01   0.4015391E-01   0.2283842E+01  -0.2626630E-01   0.3037133E-01  -0.1450440E-02
  -0.9132808E-02
  -0.7725425E+00   0.4877642E+01  -0.8181818E+01   0.6311144E-01   0.2444128E+01  -0.4837322E-01   0.4053499E-01  -0.2101280E-02
  -0.1323087E-01
  -0.7725425E+00   0.4877642E+01  -0.7272727E+01   0.9486730E-01   0.2511368E+01  -0.7664283E-01   0.5590780E-01  -0.3044162E-02
  -0.1916780E-01
  -0.7725425E+00   0.4877642E+01  -0.6363636E+01   0.1402207E+00   0.2562069E+01  -0.1173260E+00   0.7678838E-01  -0.4410132E-02
  -0.2776874E-01
  -0.7725425E+00   0.4877642E+01  -0.5454545E+01   0.2059119E+00   0.2588416E+01  -0.1752021E+00   0.1081847E+00  -0.6389040E-02
  -0.4022910E-01
  -0.7725425E+00   0.4877642E+01  -0.4545455E+01   0.3012610E+00   0.2614161E+01  -0.2603204E+00   0.1516293E+00  -0.9255921E-02
  -0.5828063E-01
  -0.7725425E+00   0.4877642E+01  -0.3636364E+01   0.4395432E+00   0.2617863E+01  -0.3806269E+00   0.2198212E+00  -0.1340922E-01
  -0.8443221E-01
  -0.7725425E+00   0.4877642E+01  -0.2727273E+01   0.6412541E+00   0.2613193E+01  -0.5537965E+00   0.3232896E+00  -0.1942618E-01
  -0.1223185E+00