VARIABLES="Theta (rad)" "ABS(HKochin)" "ANGLE(HKochin)"
Zone t="Motion of body    1 at frequency  0.5000 rad/s",I=   181,F=POINT
  0.0000000E+00  0.3226557E+02 -0.1566193E+01
  0.1745329E-01  0.3226143E+02 -0.1566197E+01
  0.3490658E-01  0.3224631E+02 -0.1566193E+01
  0.5235988E-01  0.3221601E+02 -0.1566199E+01
  0.6981317E-01  0.3218251E+02 -0.1566200E+01
  0.8726647E-01  0.3214847E+02 -0.1566191E+01
  0.1047198E+00  0.3208952E+02 -0.1566197E+01
  0.1221731E+00  0.3201795E+02 -0.1566194E+01
  0.1396263E+00  0.3196308E+02 -0.1566196E+01
  0.1570796E+00  0.3186726E+02 -0.1566195E+01
  0.1745329E+00  0.3178608E+02 -0.1566193E+01
  0.1919862E+00  0.3166535E+02 -0.1566195E+01
  0.2094395E+00  0.3156167E+02 -0.1566195E+01
  0.2268928E+00  0.3144443E+02 -0.1566197E+01
  0.2443461E+00  0.3130280E+02 -0.1566200E+01
  0.2617994E+00  0.3116075E+02 -0.1566193E+01
  0.2792527E+00  0.3101592E+02 -0.1566189E+01
  0.2967060E+00  0.3085672E+02 -0.1566196E+01
  0.3141593E+00  0.3068629E+02 -0.1566198E+01
  0.3316126E+00  0.3050853E+02 -0.1566193E+01
  0.3490659E+00  0.3032005E+02 -0.1566198E+01
  0.3665192E+00  0.3011699E+02 -0.1566198E+01
  0.3839725E+00  0.2991170E+02 -0.1566196E+01
  0.4014257E+00  0.2970638E+02 -0.1566191E+01
  0.4188790E+00  0.2947672E+02 -0.1566191E+01
  0.4363323E+00  0.2923536E+02 -0.1566193E+01
  0.4537856E+00  0.2901082E+02 -0.1566195E+01
  0.4712389E+00  0.2874785E+02 -0.1566193E+01
  0.4886922E+00  0.2849639E+02 -0.1566194E+01
  0.5061455E+00  0.2821353E+02 -0.1566197E+01
  0.5235988E+00  0.2794341E+02 -0.1566191E+01
  0.5410521E+00  0.2766198E+02 -0.1566195E+01
  0.5585054E+00  0.2735905E+02 -0.1566193E+01
  0.5759587E+00  0.2705584E+02 -0.1566193E+01
  0.5934120E+00  0.2674973E+02 -0.1566191E+01
  0.6108653E+00  0.2643129E+02 -0.1566193E+01
  0.6283185E+00  0.2610338E+02 -0.1566196E+01
  0.6457719E+00  0.2576899E+02 -0.1566195E+01
  0.6632251E+00  0.2542613E+02 -0.1566187E+01
  0.6806784E+00  0.2507036E+02 -0.1566190E+01
  0.6981317E+00  0.2471320E+02 -0.1566197E+01
  0.7155850E+00  0.2435552E+02 -0.1566193E+01
  0.7330383E+00  0.2397859E+02 -0.1566193E+01
  0.7504916E+00  0.2359212E+02 -0.1566199E+01
  0.7679449E+00  0.2321872E+02 -0.1566191E+01
  0.7853982E+00  0.2281444E+02 -0.1566196E+01
  0.8028514E+00  0.2242079E+02 -0.1566193E+01
  0.8203048E+00  0.2199999E+02 -0.1566190E+01
  0.8377581E+00  0.2158978E+02 -0.1566194E+01
  0.8552114E+00  0.2117196E+02 -0.1566192E+01
  0.8726646E+00  0.2073733E+02 -0.1566190E+01
  0.8901180E+00  0.2030214E+02 -0.1566198E+01
  0.9075713E+00  0.1986477E+02 -0.1566192E+01
  0.9250245E+00  0.1941860E+02 -0.1566197E+01
  0.9424778E+00  0.1896524E+02 -0.1566195E+01
  0.9599311E+00  0.1850727E+02 -0.1566185E+01
  0.9773844E+00  0.1804331E+02 -0.1566192E+01
  0.9948377E+00  0.1756989E+02 -0.1566187E+01
  0.1012291E+01  0.1709628E+02 -0.1566185E+01
  0.1029744E+01  0.1662114E+02 -0.1566192E+01
  0.1047198E+01  0.1613334E+02 -0.1566192E+01
  0.1064651E+01  0.1563891E+02 -0.1566185E+01
  0.1082104E+01  0.1515379E+02 -0.1566189E+01
  0.1099558E+01  0.1464804E+02 -0.1566190E+01
  0.1117011E+01  0.1414862E+02 -0.1566191E+01
  0.1134464E+01  0.1363245E+02 -0.1566194E+01
  0.1151917E+01  0.1312369E+02 -0.1566190E+01
  0.1169371E+01  0.1260953E+02 -0.1566191E+01
  0.1186824E+01  0.1208491E+02 -0.1566190E+01
  0.1204277E+01  0.1156134E+02 -0.1566191E+01
  0.1221731E+01  0.1103594E+02 -0.1566185E+01
  0.1239184E+01  0.1050498E+02 -0.1566198E+01
  0.1256637E+01  0.9970572E+01 -0.1566179E+01
  0.1274090E+01  0.9433717E+01 -0.1566191E+01
  0.1291544E+01  0.8893995E+01 -0.1566169E+01
  0.1308997E+01  0.8349102E+01 -0.1566173E+01
  0.1326450E+01  0.7804808E+01 -0.1566187E+01
  0.1343904E+01  0.7259573E+01 -0.1566185E+01
  0.1361357E+01  0.6708436E+01 -0.1566175E+01
  0.1378810E+01  0.6155248E+01 -0.1566180E+01
  0.1396263E+01  0.5606803E+01 -0.1566195E+01
  0.1413717E+01  0.5047509E+01 -0.1566164E+01
  0.1431170E+01  0.4490164E+01 -0.1566173E+01
  0.1448623E+01  0.3931122E+01 -0.1566182E+01
  0.1466077E+01  0.3372807E+01 -0.1566117E+01
  0.1483530E+01  0.2812686E+01 -0.1566159E+01
  0.1500983E+01  0.2250147E+01 -0.1566171E+01
  0.1518437E+01  0.1688688E+01 -0.1566134E+01
  0.1535890E+01  0.1125888E+01 -0.1566054E+01
  0.1553343E+01  0.5631395E+00 -0.1565889E+01
  0.1570796E+01  0.1481997E-03  0.1216612E+00
  0.1588250E+01  0.5632334E+00  0.1575374E+01
  0.1605703E+01  0.1125830E+01  0.1575141E+01
  0.1623156E+01  0.1688823E+01  0.1575319E+01
  0.1640610E+01  0.2250123E+01  0.1575290E+01
  0.1658063E+01  0.2812633E+01  0.1575321E+01
  0.1675516E+01  0.3372777E+01  0.1575383E+01
  0.1692969E+01  0.3931069E+01  0.1575337E+01
  0.1710423E+01  0.4490495E+01  0.1575364E+01
  0.1727876E+01  0.5047433E+01  0.1575403E+01
  0.1745329E+01  0.5606591E+01  0.1575379E+01
  0.1762783E+01  0.6155465E+01  0.1575368E+01
  0.1780236E+01  0.6708450E+01  0.1575388E+01
  0.1797689E+01  0.7259562E+01  0.1575367E+01
  0.1815143E+01  0.7804865E+01  0.1575372E+01
  0.1832596E+01  0.8349072E+01  0.1575363E+01
  0.1850049E+01  0.8894059E+01  0.1575398E+01
  0.1867502E+01  0.9433692E+01  0.1575376E+01
  0.1884956E+01  0.9970632E+01  0.1575387E+01
  0.1902409E+01  0.1050487E+02  0.1575386E+01
  0.1919862E+01  0.1103538E+02  0.1575387E+01
  0.1937316E+01  0.1156267E+02  0.1575384E+01
  0.1954769E+01  0.1208511E+02  0.1575374E+01
  0.1972222E+01  0.1260945E+02  0.1575393E+01
  0.1989675E+01  0.1312362E+02  0.1575390E+01
  0.2007129E+01  0.1363260E+02  0.1575383E+01
  0.2024582E+01  0.1414766E+02  0.1575387E+01
  0.2042035E+01  0.1464796E+02  0.1575385E+01
  0.2059489E+01  0.1515469E+02  0.1575386E+01
  0.2076942E+01  0.1563924E+02  0.1575388E+01
  0.2094395E+01  0.1613330E+02  0.1575387E+01
  0.2111848E+01  0.1662112E+02  0.1575385E+01
  0.2129302E+01  0.1709599E+02  0.1575391E+01
  0.2146755E+01  0.1757000E+02  0.1575392E+01
  0.2164208E+01  0.1804317E+02  0.1575384E+01
  0.2181662E+01  0.1850725E+02  0.1575393E+01
  0.2199115E+01  0.1896509E+02  0.1575389E+01
  0.2216568E+01  0.1941859E+02  0.1575390E+01
  0.2234021E+01  0.1986559E+02  0.1575387E+01
  0.2251475E+01  0.2030430E+02  0.1575394E+01
  0.2268928E+01  0.2073702E+02  0.1575386E+01
  0.2286381E+01  0.2117211E+02  0.1575386E+01
  0.2303835E+01  0.2159005E+02  0.1575391E+01
  0.2321288E+01  0.2199970E+02  0.1575391E+01
  0.2338741E+01  0.2241918E+02  0.1575387E+01
  0.2356194E+01  0.2281469E+02  0.1575389E+01
  0.2373648E+01  0.2321946E+02  0.1575396E+01
  0.2391101E+01  0.2359202E+02  0.1575391E+01
  0.2408554E+01  0.2397859E+02  0.1575391E+01
  0.2426008E+01  0.2435574E+02  0.1575391E+01
  0.2443461E+01  0.2471387E+02  0.1575388E+01
  0.2460914E+01  0.2507330E+02  0.1575394E+01
  0.2478368E+01  0.2542721E+02  0.1575395E+01
  0.2495821E+01  0.2576912E+02  0.1575389E+01
  0.2513274E+01  0.2610308E+02  0.1575392E+01
  0.2530727E+01  0.2643143E+02  0.1575395E+01
  0.2548181E+01  0.2674963E+02  0.1575391E+01
  0.2565634E+01  0.2705562E+02  0.1575392E+01
  0.2583087E+01  0.2735879E+02  0.1575393E+01
  0.2600541E+01  0.2766195E+02  0.1575389E+01
  0.2617994E+01  0.2794311E+02  0.1575391E+01
  0.2635447E+01  0.2821340E+02  0.1575390E+01
  0.2652900E+01  0.2849828E+02  0.1575389E+01
  0.2670354E+01  0.2874785E+02  0.1575391E+01
  0.2687807E+01  0.2901079E+02  0.1575389E+01
  0.2705260E+01  0.2923571E+02  0.1575392E+01
  0.2722714E+01  0.2947676E+02  0.1575393E+01
  0.2740167E+01  0.2970634E+02  0.1575392E+01
  0.2757620E+01  0.2991219E+02  0.1575389E+01
  0.2775074E+01  0.3012012E+02  0.1575390E+01
  0.2792527E+01  0.3032024E+02  0.1575390E+01
  0.2809980E+01  0.3050851E+02  0.1575394E+01
  0.2827433E+01  0.3068620E+02  0.1575391E+01
  0.2844887E+01  0.3085659E+02  0.1575392E+01
  0.2862340E+01  0.3101613E+02  0.1575393E+01
  0.2879793E+01  0.3116113E+02  0.1575389E+01
  0.2897247E+01  0.3130247E+02  0.1575390E+01
  0.2914700E+01  0.3144444E+02  0.1575390E+01
  0.2932153E+01  0.3156122E+02  0.1575391E+01
  0.2949607E+01  0.3166556E+02  0.1575390E+01
  0.2967060E+01  0.3178571E+02  0.1575391E+01
  0.2984513E+01  0.3186727E+02  0.1575388E+01
  0.3001966E+01  0.3196292E+02  0.1575392E+01
  0.3019420E+01  0.3201820E+02  0.1575392E+01
  0.3036873E+01  0.3208954E+02  0.1575391E+01
  0.3054326E+01  0.3214894E+02  0.1575395E+01
  0.3071780E+01  0.3218200E+02  0.1575389E+01
  0.3089233E+01  0.3221636E+02  0.1575394E+01
  0.3106686E+01  0.3224632E+02  0.1575392E+01
  0.3124139E+01  0.3226173E+02  0.1575389E+01
  0.3141593E+01  0.3226571E+02  0.1575395E+01
Zone t="Motion of body    1 at frequency  0.5385 rad/s",I=   181,F=POINT
  0.0000000E+00  0.3691935E+02 -0.1563862E+01
  0.1745329E-01  0.3691691E+02 -0.1563862E+01
  0.3490658E-01  0.3689814E+02 -0.1563863E+01
  0.5235988E-01  0.3686959E+02 -0.1563864E+01
  0.6981317E-01  0.3683288E+02 -0.1563861E+01
  0.8726647E-01  0.3677854E+02 -0.1563863E+01
  0.1047198E+00  0.3671342E+02 -0.1563864E+01
  0.1221731E+00  0.3664851E+02 -0.1563866E+01
  0.1396263E+00  0.3655131E+02 -0.1563864E+01
  0.1570796E+00  0.3646696E+02 -0.1563863E+01
  0.1745329E+00  0.3634943E+02 -0.1563862E+01
  0.1919862E+00  0.3624551E+02 -0.1563862E+01
  0.2094395E+00  0.3610955E+02 -0.1563862E+01
  0.2268928E+00  0.3597579E+02 -0.1563864E+01
  0.2443461E+00  0.3582588E+02 -0.1563864E+01
  0.2617994E+00  0.3566196E+02 -0.1563863E+01
  0.2792527E+00  0.3548999E+02 -0.1563865E+01
  0.2967060E+00  0.3530931E+02 -0.1563861E+01
  0.3141593E+00  0.3511258E+02 -0.1563865E+01
  0.3316126E+00  0.3491069E+02 -0.1563864E+01
  0.3490659E+00  0.3469823E+02 -0.1563859E+01
  0.3665192E+00  0.3446774E+02 -0.1563865E+01
  0.3839725E+00  0.3423410E+02 -0.1563860E+01
  0.4014257E+00  0.3398815E+02 -0.1563861E+01
  0.4188790E+00  0.3372472E+02 -0.1563864E+01
  0.4363323E+00  0.3346485E+02 -0.1563865E+01
  0.4537856E+00  0.3317433E+02 -0.1563864E+01
  0.4712389E+00  0.3289735E+02 -0.1563864E+01
  0.4886922E+00  0.3258977E+02 -0.1563864E+01
  0.5061455E+00  0.3229395E+02 -0.1563869E+01
  0.5235988E+00  0.3197758E+02 -0.1563862E+01
  0.5410521E+00  0.3164470E+02 -0.1563860E+01
  0.5585054E+00  0.3131264E+02 -0.1563866E+01
  0.5759587E+00  0.3096326E+02 -0.1563866E+01
  0.5934120E+00  0.3060930E+02 -0.1563861E+01
  0.6108653E+00  0.3024504E+02 -0.1563862E+01
  0.6283185E+00  0.2986851E+02 -0.1563864E+01
  0.6457719E+00  0.2948724E+02 -0.1563860E+01
  0.6632251E+00  0.2909417E+02 -0.1563865E+01
  0.6806784E+00  0.2869247E+02 -0.1563864E+01
  0.6981317E+00  0.2828435E+02 -0.1563864E+01
  0.7155850E+00  0.2786518E+02 -0.1563862E+01
  0.7330383E+00  0.2743388E+02 -0.1563861E+01
  0.7504916E+00  0.2700427E+02 -0.1563863E+01
  0.7679449E+00  0.2655238E+02 -0.1563867E+01
  0.7853982E+00  0.2610756E+02 -0.1563862E+01
  0.8028514E+00  0.2563949E+02 -0.1563864E+01
  0.8203048E+00  0.2518225E+02 -0.1563865E+01
  0.8377581E+00  0.2470110E+02 -0.1563866E+01
  0.8552114E+00  0.2422288E+02 -0.1563863E+01
  0.8726646E+00  0.2373374E+02 -0.1563867E+01
  0.8901180E+00  0.2323441E+02 -0.1563858E+01
  0.9075713E+00  0.2273034E+02 -0.1563866E+01
  0.9250245E+00  0.2222057E+02 -0.1563865E+01
  0.9424778E+00  0.2170071E+02 -0.1563863E+01
  0.9599311E+00  0.2117755E+02 -0.1563858E+01
  0.9773844E+00  0.2064643E+02 -0.1563869E+01
  0.9948377E+00  0.2010799E+02 -0.1563872E+01
  0.1012291E+01  0.1956612E+02 -0.1563863E+01
  0.1029744E+01  0.1901607E+02 -0.1563859E+01
  0.1047198E+01  0.1846202E+02 -0.1563863E+01
  0.1064651E+01  0.1790127E+02 -0.1563872E+01
  0.1082104E+01  0.1732983E+02 -0.1563867E+01
  0.1099558E+01  0.1676197E+02 -0.1563873E+01
  0.1117011E+01  0.1617953E+02 -0.1563866E+01
  0.1134464E+01  0.1560510E+02 -0.1563861E+01
  0.1151917E+01  0.1501473E+02 -0.1563862E+01
  0.1169371E+01  0.1442714E+02 -0.1563866E+01
  0.1186824E+01  0.1383169E+02 -0.1563870E+01
  0.1204277E+01  0.1323093E+02 -0.1563865E+01
  0.1221731E+01  0.1262726E+02 -0.1563873E+01
  0.1239184E+01  0.1202049E+02 -0.1563854E+01
  0.1256637E+01  0.1140873E+02 -0.1563867E+01
  0.1274090E+01  0.1079459E+02 -0.1563862E+01
  0.1291544E+01  0.1017695E+02 -0.1563865E+01
  0.1308997E+01  0.9555532E+01 -0.1563856E+01
  0.1326450E+01  0.8932202E+01 -0.1563862E+01
  0.1343904E+01  0.8304115E+01 -0.1563879E+01
  0.1361357E+01  0.7675246E+01 -0.1563884E+01
  0.1378810E+01  0.7045243E+01 -0.1563868E+01
  0.1396263E+01  0.6411125E+01 -0.1563886E+01
  0.1413717E+01  0.5775743E+01 -0.1563857E+01
  0.1431170E+01  0.5135598E+01 -0.1563892E+01
  0.1448623E+01  0.4500202E+01 -0.1563851E+01
  0.1466077E+01  0.3858736E+01 -0.1563855E+01
  0.1483530E+01  0.3218020E+01 -0.1563850E+01
  0.1500983E+01  0.2575798E+01 -0.1563881E+01
  0.1518437E+01  0.1932304E+01 -0.1563897E+01
  0.1535890E+01  0.1288256E+01 -0.1563927E+01
  0.1553343E+01  0.6443024E+00 -0.1563982E+01
  0.1570796E+01  0.1271539E-03 -0.3000201E+01
  0.1588250E+01  0.6443526E+00  0.1577868E+01
  0.1605703E+01  0.1288298E+01  0.1577787E+01
  0.1623156E+01  0.1932350E+01  0.1577755E+01
  0.1640610E+01  0.2575794E+01  0.1577707E+01
  0.1658063E+01  0.3218042E+01  0.1577767E+01
  0.1675516E+01  0.3858707E+01  0.1577752E+01
  0.1692969E+01  0.4500089E+01  0.1577759E+01
  0.1710423E+01  0.5135464E+01  0.1577716E+01
  0.1727876E+01  0.5775811E+01  0.1577760E+01
  0.1745329E+01  0.6410630E+01  0.1577728E+01
  0.1762783E+01  0.7045217E+01  0.1577739E+01
  0.1780236E+01  0.7675303E+01  0.1577752E+01
  0.1797689E+01  0.8305631E+01  0.1577729E+01
  0.1815143E+01  0.8932311E+01  0.1577742E+01
  0.1832596E+01  0.9555635E+01  0.1577748E+01
  0.1850049E+01  0.1017693E+02  0.1577742E+01
  0.1867502E+01  0.1079514E+02  0.1577723E+01
  0.1884956E+01  0.1140875E+02  0.1577733E+01
  0.1902409E+01  0.1202103E+02  0.1577732E+01
  0.1919862E+01  0.1262721E+02  0.1577733E+01
  0.1937316E+01  0.1323102E+02  0.1577738E+01
  0.1954769E+01  0.1383175E+02  0.1577731E+01
  0.1972222E+01  0.1442696E+02  0.1577745E+01
  0.1989675E+01  0.1501502E+02  0.1577740E+01
  0.2007129E+01  0.1560522E+02  0.1577736E+01
  0.2024582E+01  0.1617859E+02  0.1577734E+01
  0.2042035E+01  0.1676203E+02  0.1577739E+01
  0.2059489E+01  0.1732934E+02  0.1577741E+01
  0.2076942E+01  0.1790117E+02  0.1577733E+01
  0.2094395E+01  0.1846207E+02  0.1577742E+01
  0.2111848E+01  0.1901383E+02  0.1577738E+01
  0.2129302E+01  0.1956596E+02  0.1577732E+01
  0.2146755E+01  0.2010794E+02  0.1577729E+01
  0.2164208E+01  0.2064640E+02  0.1577733E+01
  0.2181662E+01  0.2117650E+02  0.1577738E+01
  0.2199115E+01  0.2170078E+02  0.1577738E+01
  0.2216568E+01  0.2222054E+02  0.1577736E+01
  0.2234021E+01  0.2273043E+02  0.1577733E+01
  0.2251475E+01  0.2323475E+02  0.1577739E+01
  0.2268928E+01  0.2373373E+02  0.1577731E+01
  0.2286381E+01  0.2422296E+02  0.1577735E+01
  0.2303835E+01  0.2470700E+02  0.1577730E+01
  0.2321288E+01  0.2518262E+02  0.1577734E+01
  0.2338741E+01  0.2563977E+02  0.1577733E+01
  0.2356194E+01  0.2610759E+02  0.1577734E+01
  0.2373648E+01  0.2655290E+02  0.1577732E+01
  0.2391101E+01  0.2700476E+02  0.1577733E+01
  0.2408554E+01  0.2744015E+02  0.1577734E+01
  0.2426008E+01  0.2786539E+02  0.1577734E+01
  0.2443461E+01  0.2828454E+02  0.1577732E+01
  0.2460914E+01  0.2869246E+02  0.1577734E+01
  0.2478368E+01  0.2909419E+02  0.1577735E+01
  0.2495821E+01  0.2948584E+02  0.1577735E+01
  0.2513274E+01  0.2986841E+02  0.1577734E+01
  0.2530727E+01  0.3024367E+02  0.1577735E+01
  0.2548181E+01  0.3060957E+02  0.1577735E+01
  0.2565634E+01  0.3096358E+02  0.1577733E+01
  0.2583087E+01  0.3131235E+02  0.1577731E+01
  0.2600541E+01  0.3164464E+02  0.1577737E+01
  0.2617994E+01  0.3197718E+02  0.1577731E+01
  0.2635447E+01  0.3229423E+02  0.1577731E+01
  0.2652900E+01  0.3258845E+02  0.1577729E+01
  0.2670354E+01  0.3289738E+02  0.1577736E+01
  0.2687807E+01  0.3317437E+02  0.1577731E+01
  0.2705260E+01  0.3346509E+02  0.1577730E+01
  0.2722714E+01  0.3372478E+02  0.1577735E+01
  0.2740167E+01  0.3398775E+02  0.1577734E+01
  0.2757620E+01  0.3423414E+02  0.1577732E+01
  0.2775074E+01  0.3446746E+02  0.1577733E+01
  0.2792527E+01  0.3469379E+02  0.1577735E+01
  0.2809980E+01  0.3491057E+02  0.1577734E+01
  0.2827433E+01  0.3511216E+02  0.1577734E+01
  0.2844887E+01  0.3530939E+02  0.1577734E+01
  0.2862340E+01  0.3549088E+02  0.1577733E+01
  0.2879793E+01  0.3566200E+02  0.1577733E+01
  0.2897247E+01  0.3582596E+02  0.1577733E+01
  0.2914700E+01  0.3597590E+02  0.1577734E+01
  0.2932153E+01  0.3610937E+02  0.1577733E+01
  0.2949607E+01  0.3624566E+02  0.1577731E+01
  0.2967060E+01  0.3635007E+02  0.1577735E+01
  0.2984513E+01  0.3646698E+02  0.1577735E+01
  0.3001966E+01  0.3655119E+02  0.1577735E+01
  0.3019420E+01  0.3664824E+02  0.1577731E+01
  0.3036873E+01  0.3671363E+02  0.1577733E+01
  0.3054326E+01  0.3678035E+02  0.1577733E+01
  0.3071780E+01  0.3683277E+02  0.1577735E+01
  0.3089233E+01  0.3686918E+02  0.1577730E+01
  0.3106686E+01  0.3689816E+02  0.1577736E+01
  0.3124139E+01  0.3691662E+02  0.1577733E+01
  0.3141593E+01  0.3692112E+02  0.1577730E+01
Zone t="Motion of body    1 at frequency  0.5769 rad/s",I=   181,F=POINT
  0.0000000E+00  0.4179234E+02 -0.1560676E+01
  0.1745329E-01  0.4178155E+02 -0.1560674E+01
  0.3490658E-01  0.4176899E+02 -0.1560675E+01
  0.5235988E-01  0.4173156E+02 -0.1560672E+01
  0.6981317E-01  0.4168879E+02 -0.1560673E+01
  0.8726647E-01  0.4162970E+02 -0.1560676E+01
  0.1047198E+00  0.4156067E+02 -0.1560675E+01
  0.1221731E+00  0.4148475E+02 -0.1560673E+01
  0.1396263E+00  0.4138936E+02 -0.1560675E+01
  0.1570796E+00  0.4127639E+02 -0.1560678E+01
  0.1745329E+00  0.4116150E+02 -0.1560676E+01
  0.1919862E+00  0.4102785E+02 -0.1560673E+01
  0.2094395E+00  0.4087582E+02 -0.1560677E+01
  0.2268928E+00  0.4071742E+02 -0.1560676E+01
  0.2443461E+00  0.4054920E+02 -0.1560675E+01
  0.2617994E+00  0.4036481E+02 -0.1560676E+01
  0.2792527E+00  0.4017524E+02 -0.1560677E+01
  0.2967060E+00  0.3996191E+02 -0.1560676E+01
  0.3141593E+00  0.3974670E+02 -0.1560673E+01
  0.3316126E+00  0.3951114E+02 -0.1560679E+01
  0.3490659E+00  0.3927378E+02 -0.1560677E+01
  0.3665192E+00  0.3901310E+02 -0.1560675E+01
  0.3839725E+00  0.3874764E+02 -0.1560675E+01
  0.4014257E+00  0.3846686E+02 -0.1560677E+01
  0.4188790E+00  0.3817640E+02 -0.1560675E+01
  0.4363323E+00  0.3787962E+02 -0.1560674E+01
  0.4537856E+00  0.3756538E+02 -0.1560675E+01
  0.4712389E+00  0.3723595E+02 -0.1560674E+01
  0.4886922E+00  0.3690419E+02 -0.1560677E+01
  0.5061455E+00  0.3655593E+02 -0.1560677E+01
  0.5235988E+00  0.3619067E+02 -0.1560678E+01
  0.5410521E+00  0.3581970E+02 -0.1560676E+01
  0.5585054E+00  0.3544018E+02 -0.1560675E+01
  0.5759587E+00  0.3504713E+02 -0.1560674E+01
  0.5934120E+00  0.3464917E+02 -0.1560674E+01
  0.6108653E+00  0.3423070E+02 -0.1560676E+01
  0.6283185E+00  0.3381073E+02 -0.1560678E+01
  0.6457719E+00  0.3337321E+02 -0.1560674E+01
  0.6632251E+00  0.3293447E+02 -0.1560678E+01
  0.6806784E+00  0.3247598E+02 -0.1560674E+01
  0.6981317E+00  0.3201384E+02 -0.1560677E+01
  0.7155850E+00  0.3153831E+02 -0.1560677E+01
  0.7330383E+00  0.3105567E+02 -0.1560677E+01
  0.7504916E+00  0.3056736E+02 -0.1560675E+01
  0.7679449E+00  0.3006533E+02 -0.1560680E+01
  0.7853982E+00  0.2955072E+02 -0.1560678E+01
  0.8028514E+00  0.2903449E+02 -0.1560679E+01
  0.8203048E+00  0.2850477E+02 -0.1560681E+01
  0.8377581E+00  0.2796243E+02 -0.1560681E+01
  0.8552114E+00  0.2741555E+02 -0.1560675E+01
  0.8726646E+00  0.2686248E+02 -0.1560677E+01
  0.8901180E+00  0.2629880E+02 -0.1560680E+01
  0.9075713E+00  0.2573120E+02 -0.1560680E+01
  0.9250245E+00  0.2514858E+02 -0.1560676E+01
  0.9424778E+00  0.2456493E+02 -0.1560681E+01
  0.9599311E+00  0.2396861E+02 -0.1560679E+01
  0.9773844E+00  0.2337112E+02 -0.1560684E+01
  0.9948377E+00  0.2275957E+02 -0.1560676E+01
  0.1012291E+01  0.2214573E+02 -0.1560682E+01
  0.1029744E+01  0.2152293E+02 -0.1560680E+01
  0.1047198E+01  0.2089535E+02 -0.1560683E+01
  0.1064651E+01  0.2026274E+02 -0.1560680E+01
  0.1082104E+01  0.1962129E+02 -0.1560675E+01
  0.1099558E+01  0.1897260E+02 -0.1560681E+01
  0.1117011E+01  0.1832264E+02 -0.1560678E+01
  0.1134464E+01  0.1766370E+02 -0.1560683E+01
  0.1151917E+01  0.1699707E+02 -0.1560681E+01
  0.1169371E+01  0.1632816E+02 -0.1560687E+01
  0.1186824E+01  0.1565468E+02 -0.1560672E+01
  0.1204277E+01  0.1497592E+02 -0.1560682E+01
  0.1221731E+01  0.1429438E+02 -0.1560679E+01
  0.1239184E+01  0.1360481E+02 -0.1560682E+01
  0.1256637E+01  0.1291447E+02 -0.1560687E+01
  0.1274090E+01  0.1221758E+02 -0.1560682E+01
  0.1291544E+01  0.1152001E+02 -0.1560681E+01
  0.1308997E+01  0.1081549E+02 -0.1560684E+01
  0.1326450E+01  0.1011026E+02 -0.1560683E+01
  0.1343904E+01  0.9400521E+01 -0.1560672E+01
  0.1361357E+01  0.8688530E+01 -0.1560687E+01
  0.1378810E+01  0.7974844E+01 -0.1560700E+01
  0.1396263E+01  0.7256971E+01 -0.1560690E+01
  0.1413717E+01  0.6537541E+01 -0.1560686E+01
  0.1431170E+01  0.5817561E+01 -0.1560698E+01
  0.1448623E+01  0.5093827E+01 -0.1560721E+01
  0.1466077E+01  0.4367939E+01 -0.1560748E+01
  0.1483530E+01  0.3642106E+01 -0.1560700E+01
  0.1500983E+01  0.2914921E+01 -0.1560732E+01
  0.1518437E+01  0.2187213E+01 -0.1560735E+01
  0.1535890E+01  0.1458549E+01 -0.1560741E+01
  0.1553343E+01  0.7293524E+00 -0.1560593E+01
  0.1570796E+01  0.8073355E-04 -0.3043705E+01
  0.1588250E+01  0.7294303E+00  0.1581267E+01
  0.1605703E+01  0.1458588E+01  0.1581047E+01
  0.1623156E+01  0.2187275E+01  0.1580976E+01
  0.1640610E+01  0.2914957E+01  0.1580958E+01
  0.1658063E+01  0.3642062E+01  0.1580959E+01
  0.1675516E+01  0.4368134E+01  0.1580920E+01
  0.1692969E+01  0.5093621E+01  0.1580942E+01
  0.1710423E+01  0.5816955E+01  0.1580955E+01
  0.1727876E+01  0.6537603E+01  0.1580940E+01
  0.1745329E+01  0.7256988E+01  0.1580956E+01
  0.1762783E+01  0.7974886E+01  0.1580939E+01
  0.1780236E+01  0.8688709E+01  0.1580940E+01
  0.1797689E+01  0.9400515E+01  0.1580949E+01
  0.1815143E+01  0.1011031E+02  0.1580932E+01
  0.1832596E+01  0.1081551E+02  0.1580938E+01
  0.1850049E+01  0.1152005E+02  0.1580928E+01
  0.1867502E+01  0.1221756E+02  0.1580940E+01
  0.1884956E+01  0.1291461E+02  0.1580924E+01
  0.1902409E+01  0.1360480E+02  0.1580923E+01
  0.1919862E+01  0.1429440E+02  0.1580939E+01
  0.1937316E+01  0.1497587E+02  0.1580929E+01
  0.1954769E+01  0.1565478E+02  0.1580938E+01
  0.1972222E+01  0.1632804E+02  0.1580930E+01
  0.1989675E+01  0.1699707E+02  0.1580931E+01
  0.2007129E+01  0.1766377E+02  0.1580924E+01
  0.2024582E+01  0.1832277E+02  0.1580929E+01
  0.2042035E+01  0.1897266E+02  0.1580932E+01
  0.2059489E+01  0.1962096E+02  0.1580936E+01
  0.2076942E+01  0.2026272E+02  0.1580930E+01
  0.2094395E+01  0.2089508E+02  0.1580924E+01
  0.2111848E+01  0.2152299E+02  0.1580927E+01
  0.2129302E+01  0.2214586E+02  0.1580923E+01
  0.2146755E+01  0.2275953E+02  0.1580932E+01
  0.2164208E+01  0.2337120E+02  0.1580928E+01
  0.2181662E+01  0.2396869E+02  0.1580926E+01
  0.2199115E+01  0.2456505E+02  0.1580928E+01
  0.2216568E+01  0.2514859E+02  0.1580927E+01
  0.2234021E+01  0.2573115E+02  0.1580930E+01
  0.2251475E+01  0.2629855E+02  0.1580919E+01
  0.2268928E+01  0.2686229E+02  0.1580932E+01
  0.2286381E+01  0.2741571E+02  0.1580931E+01
  0.2303835E+01  0.2796247E+02  0.1580927E+01
  0.2321288E+01  0.2850498E+02  0.1580925E+01
  0.2338741E+01  0.2903409E+02  0.1580925E+01
  0.2356194E+01  0.2955045E+02  0.1580928E+01
  0.2373648E+01  0.3006499E+02  0.1580927E+01
  0.2391101E+01  0.3056770E+02  0.1580925E+01
  0.2408554E+01  0.3105584E+02  0.1580930E+01
  0.2426008E+01  0.3153847E+02  0.1580932E+01
  0.2443461E+01  0.3201359E+02  0.1580922E+01
  0.2460914E+01  0.3247574E+02  0.1580926E+01
  0.2478368E+01  0.3293439E+02  0.1580927E+01
  0.2495821E+01  0.3337326E+02  0.1580927E+01
  0.2513274E+01  0.3380868E+02  0.1580926E+01
  0.2530727E+01  0.3423082E+02  0.1580925E+01
  0.2548181E+01  0.3464930E+02  0.1580924E+01
  0.2565634E+01  0.3504700E+02  0.1580926E+01
  0.2583087E+01  0.3544037E+02  0.1580923E+01
  0.2600541E+01  0.3581988E+02  0.1580923E+01
  0.2617994E+01  0.3619098E+02  0.1580927E+01
  0.2635447E+01  0.3655562E+02  0.1580924E+01
  0.2652900E+01  0.3690322E+02  0.1580925E+01
  0.2670354E+01  0.3723590E+02  0.1580927E+01
  0.2687807E+01  0.3756556E+02  0.1580926E+01
  0.2705260E+01  0.3787973E+02  0.1580927E+01
  0.2722714E+01  0.3817657E+02  0.1580925E+01
  0.2740167E+01  0.3847012E+02  0.1580925E+01
  0.2757620E+01  0.3874765E+02  0.1580926E+01
  0.2775074E+01  0.3901302E+02  0.1580924E+01
  0.2792527E+01  0.3927369E+02  0.1580925E+01
  0.2809980E+01  0.3951112E+02  0.1580922E+01
  0.2827433E+01  0.3974696E+02  0.1580923E+01
  0.2844887E+01  0.3996227E+02  0.1580923E+01
  0.2862340E+01  0.4017524E+02  0.1580924E+01
  0.2879793E+01  0.4036504E+02  0.1580923E+01
  0.2897247E+01  0.4054915E+02  0.1580924E+01
  0.2914700E+01  0.4071774E+02  0.1580927E+01
  0.2932153E+01  0.4087614E+02  0.1580925E+01
  0.2949607E+01  0.4102901E+02  0.1580926E+01
  0.2967060E+01  0.4116077E+02  0.1580926E+01
  0.2984513E+01  0.4127639E+02  0.1580922E+01
  0.3001966E+01  0.4138688E+02  0.1580925E+01
  0.3019420E+01  0.4148413E+02  0.1580926E+01
  0.3036873E+01  0.4156079E+02  0.1580921E+01
  0.3054326E+01  0.4162947E+02  0.1580924E+01
  0.3071780E+01  0.4168926E+02  0.1580927E+01
  0.3089233E+01  0.4173151E+02  0.1580923E+01
  0.3106686E+01  0.4176902E+02  0.1580922E+01
  0.3124139E+01  0.4178139E+02  0.1580927E+01
  0.3141593E+01  0.4179255E+02  0.1580925E+01
Zone t="Motion of body    1 at frequency  0.6154 rad/s",I=   181,F=POINT
  0.0000000E+00  0.4683190E+02 -0.1556437E+01
  0.1745329E-01  0.4682202E+02 -0.1556437E+01
  0.3490658E-01  0.4680289E+02 -0.1556440E+01
  0.5235988E-01  0.4676604E+02 -0.1556434E+01
  0.6981317E-01  0.4671901E+02 -0.1556438E+01
  0.8726647E-01  0.4665583E+02 -0.1556440E+01
  0.1047198E+00  0.4657558E+02 -0.1556437E+01
  0.1221731E+00  0.4648669E+02 -0.1556436E+01
  0.1396263E+00  0.4637673E+02 -0.1556439E+01
  0.1570796E+00  0.4625557E+02 -0.1556437E+01
  0.1745329E+00  0.4612119E+02 -0.1556438E+01
  0.1919862E+00  0.4597553E+02 -0.1556439E+01
  0.2094395E+00  0.4581068E+02 -0.1556436E+01
  0.2268928E+00  0.4563349E+02 -0.1556438E+01
  0.2443461E+00  0.4544168E+02 -0.1556437E+01
  0.2617994E+00  0.4523561E+02 -0.1556438E+01
  0.2792527E+00  0.4501762E+02 -0.1556441E+01
  0.2967060E+00  0.4478254E+02 -0.1556439E+01
  0.3141593E+00  0.4453963E+02 -0.1556439E+01
  0.3316126E+00  0.4427781E+02 -0.1556438E+01
  0.3490659E+00  0.4400731E+02 -0.1556437E+01
  0.3665192E+00  0.4372102E+02 -0.1556438E+01
  0.3839725E+00  0.4342304E+02 -0.1556437E+01
  0.4014257E+00  0.4311076E+02 -0.1556437E+01
  0.4188790E+00  0.4278601E+02 -0.1556440E+01
  0.4363323E+00  0.4244814E+02 -0.1556439E+01
  0.4537856E+00  0.4209374E+02 -0.1556441E+01
  0.4712389E+00  0.4172779E+02 -0.1556439E+01
  0.4886922E+00  0.4135036E+02 -0.1556438E+01
  0.5061455E+00  0.4096334E+02 -0.1556437E+01
  0.5235988E+00  0.4055938E+02 -0.1556441E+01
  0.5410521E+00  0.4014456E+02 -0.1556440E+01
  0.5585054E+00  0.3971672E+02 -0.1556438E+01
  0.5759587E+00  0.3927511E+02 -0.1556440E+01
  0.5934120E+00  0.3882519E+02 -0.1556436E+01
  0.6108653E+00  0.3835995E+02 -0.1556443E+01
  0.6283185E+00  0.3788774E+02 -0.1556440E+01
  0.6457719E+00  0.3739923E+02 -0.1556439E+01
  0.6632251E+00  0.3690366E+02 -0.1556437E+01
  0.6806784E+00  0.3639475E+02 -0.1556441E+01
  0.6981317E+00  0.3587634E+02 -0.1556440E+01
  0.7155850E+00  0.3534571E+02 -0.1556436E+01
  0.7330383E+00  0.3480482E+02 -0.1556439E+01
  0.7504916E+00  0.3425377E+02 -0.1556440E+01
  0.7679449E+00  0.3368782E+02 -0.1556436E+01
  0.7853982E+00  0.3311534E+02 -0.1556443E+01
  0.8028514E+00  0.3253429E+02 -0.1556438E+01
  0.8203048E+00  0.3194209E+02 -0.1556440E+01
  0.8377581E+00  0.3133882E+02 -0.1556439E+01
  0.8552114E+00  0.3072582E+02 -0.1556440E+01
  0.8726646E+00  0.3010356E+02 -0.1556440E+01
  0.8901180E+00  0.2947163E+02 -0.1556436E+01
  0.9075713E+00  0.2883252E+02 -0.1556439E+01
  0.9250245E+00  0.2818240E+02 -0.1556442E+01
  0.9424778E+00  0.2752705E+02 -0.1556438E+01
  0.9599311E+00  0.2686006E+02 -0.1556436E+01
  0.9773844E+00  0.2618772E+02 -0.1556441E+01
  0.9948377E+00  0.2550565E+02 -0.1556438E+01
  0.1012291E+01  0.2481789E+02 -0.1556442E+01
  0.1029744E+01  0.2412097E+02 -0.1556445E+01
  0.1047198E+01  0.2341586E+02 -0.1556437E+01
  0.1064651E+01  0.2270669E+02 -0.1556440E+01
  0.1082104E+01  0.2198682E+02 -0.1556440E+01
  0.1099558E+01  0.2126111E+02 -0.1556441E+01
  0.1117011E+01  0.2052459E+02 -0.1556439E+01
  0.1134464E+01  0.1979389E+02 -0.1556438E+01
  0.1151917E+01  0.1904910E+02 -0.1556440E+01
  0.1169371E+01  0.1829972E+02 -0.1556443E+01
  0.1186824E+01  0.1754375E+02 -0.1556438E+01
  0.1204277E+01  0.1678253E+02 -0.1556438E+01
  0.1221731E+01  0.1601773E+02 -0.1556454E+01
  0.1239184E+01  0.1524607E+02 -0.1556446E+01
  0.1256637E+01  0.1447179E+02 -0.1556449E+01
  0.1274090E+01  0.1369138E+02 -0.1556447E+01
  0.1291544E+01  0.1290844E+02 -0.1556447E+01
  0.1308997E+01  0.1212064E+02 -0.1556440E+01
  0.1326450E+01  0.1133009E+02 -0.1556436E+01
  0.1343904E+01  0.1053519E+02 -0.1556449E+01
  0.1361357E+01  0.9737727E+01 -0.1556459E+01
  0.1378810E+01  0.8936687E+01 -0.1556446E+01
  0.1396263E+01  0.8130569E+01 -0.1556449E+01
  0.1413717E+01  0.7326004E+01 -0.1556462E+01
  0.1431170E+01  0.6517962E+01 -0.1556460E+01
  0.1448623E+01  0.5708003E+01 -0.1556473E+01
  0.1466077E+01  0.4895273E+01 -0.1556455E+01
  0.1483530E+01  0.4081952E+01 -0.1556468E+01
  0.1500983E+01  0.3266783E+01 -0.1556477E+01