VARIABLES="w (rad/s)"
"A   1   1" "B   1   1"
"A   1   2" "B   1   2"
"A   1   3" "B   1   3"
"A   1   4" "B   1   4"
"A   1   5" "B   1   5"
"A   1   6" "B   1   6"
Zone t="Motion of body    1 in DoF   1",I=    40,F=POINT
  0.5000000E-01  0.5807401E+06  0.4109962E-03 -0.2288818E-02  0.1000444E-10  0.2578735E-01  0.7888112E-05 -0.9841918E-02 -0.4115464E-10  0.1778936E+07  0.1290367E-02 -0.1373291E-02  0.5115908E-11
  0.9999999E-01  0.5842498E+06  0.4912776E-01 -0.1296997E-02 -0.7530616E-09  0.3921509E-01  0.1001989E-03 -0.7629395E-04 -0.1324224E-08  0.1787743E+07  0.1517310E+00  0.4730225E-02  0.1673470E-09
  0.1500000E+00  0.5900974E+06  0.8389384E+00 -0.2593994E-02 -0.1018634E-07 -0.3255208E-02  0.7000612E-04 -0.7832845E-02 -0.2444722E-07  0.1812478E+07  0.2599581E+01 -0.6103516E-02  0.7217750E-08
  0.2000000E+00  0.5926649E+06  0.6192619E+01  0.2899170E-02 -0.3725290E-08  0.1159668E-01  0.2166256E-05 -0.1312256E-01 -0.1881272E-06  0.1820624E+07  0.1924724E+02  0.3662110E-02 -0.8381903E-08
  0.2500000E+00  0.5964612E+06  0.2904751E+02  0.4394531E-02 -0.6146729E-07  0.2441406E-02  0.8439869E-03  0.7751464E-02 -0.2756715E-06  0.1835658E+07  0.9062315E+02  0.1831054E-02 -0.8195639E-07
  0.3000000E+00  0.6016231E+06  0.1019762E+03  0.2034505E-02 -0.9909272E-06  0.1759847E-01  0.5502403E-03  0.1220703E-01  0.5364418E-05  0.1857860E+07  0.3198372E+03  0.3051758E-03  0.1594424E-05
  0.3500000E+00  0.6073907E+06  0.2928068E+03 -0.7455009E-02  0.1192093E-05 -0.2519880E-01 -0.2903461E-02 -0.4621233E-02 -0.7092953E-05  0.1880163E+07  0.9234587E+03 -0.7411412E-02 -0.5245209E-05
  0.4000001E+00  0.6144364E+06  0.7254594E+03 -0.1754760E-02 -0.4231930E-05 -0.1541137E-01 -0.2627373E-03 -0.3585814E-02 -0.9059906E-05  0.1905200E+07  0.2301439E+04  0.5493163E-02 -0.1108646E-04
  0.4500001E+00  0.6235125E+06  0.1605760E+04 -0.6781682E-03  0.2002716E-04 -0.2373589E-01 -0.1787186E-02  0.1946343E-01  0.3576279E-04  0.1942635E+07  0.5134646E+04 -0.2983940E-02  0.9298325E-05
  0.5000001E+00  0.6334813E+06  0.3247565E+04  0.2563476E-02  0.1454353E-04  0.2307129E-01  0.5590439E-02  0.1428222E-01 -0.3337860E-04  0.1978499E+07  0.1046214E+05  0.4638671E-02 -0.1668930E-04
  0.5500002E+00  0.6461415E+06  0.6108897E+04  0.5326703E-02 -0.3433228E-04  0.3218216E-01  0.1056862E-01  0.2552378E-02 -0.1754761E-03  0.2029264E+07  0.1986762E+05 -0.2885297E-02  0.3528595E-04
  0.5999997E+00  0.6603126E+06  0.1081430E+05 -0.2797446E-02 -0.2098083E-04  0.4984540E-02  0.2826691E-02 -0.1261394E-01  0.2479553E-04  0.2085499E+07  0.3552667E+05  0.2644858E-02  0.3814697E-04
  0.6500000E+00  0.6755230E+06  0.1816745E+05  0.3521259E-02 -0.1058578E-03 -0.3756010E-03  0.1983643E-03 -0.1633864E-01  0.2593994E-03  0.2143244E+07  0.6028548E+05 -0.1568134E-01 -0.3280640E-03
  0.7000000E+00  0.6925376E+06  0.2918335E+05 -0.8414132E-02 -0.2307892E-03  0.3540039E-01  0.2194214E-01  0.8108957E-02  0.1144409E-03  0.2214451E+07  0.9802614E+05 -0.2964565E-02  0.2899170E-03
  0.7500001E+00  0.7095863E+06  0.4504103E+05 -0.8138019E-03  0.4119873E-03  0.3580729E-02 -0.1647949E-02  0.1220703E-01  0.1449585E-03  0.2285968E+07  0.1531893E+06 -0.5045572E-02  0.8163452E-03
  0.8000000E+00  0.7254909E+06  0.6699302E+05 -0.1449585E-02 -0.1296997E-03 -0.2777100E-01 -0.2136230E-02 -0.2822876E-01 -0.1220703E-03  0.2352585E+07  0.2307114E+06  0.1190186E-01 -0.7324219E-03
  0.8500000E+00  0.7397285E+06  0.9617610E+05  0.8257698E-02  0.9155273E-04  0.1120175E-01  0.6958008E-02  0.1371496E-01  0.1525879E-02  0.2420138E+07  0.3359887E+06  0.3590303E-02  0.1663208E-02
  0.9000000E+00  0.7500994E+06  0.1336033E+06 -0.1152886E-02  0.2914429E-02  0.2034505E-02 -0.1278687E-01  0.1831055E-01 -0.2288818E-02  0.2476980E+07  0.4738351E+06 -0.1030816E-01  0.1525879E-03
  0.9500000E+00  0.7543733E+06  0.1796780E+06 -0.1927426E-02  0.5340576E-03  0.4240337E-02  0.0000000E+00 -0.2055921E-02  0.2471924E-02  0.2512686E+07  0.6471748E+06 -0.2569901E-02  0.2288818E-02
  0.1000000E+01  0.7497406E+06  0.2337225E+06 -0.6896972E-02 -0.9155273E-04  0.8422851E-02 -0.7995605E-02  0.3906250E-02 -0.7904053E-02  0.2514098E+07  0.8548587E+06  0.1391601E-01  0.2685547E-02
  0.1050000E+01  0.7359834E+06  0.2936710E+06  0.1976376E-02 -0.1434326E-02 -0.2557663E-02  0.1171875E-01  0.3138951E-01 -0.3570557E-02  0.2484574E+07  0.1092169E+07  0.1023065E-01  0.5126953E-02
  0.1100000E+01  0.7120722E+06  0.3567730E+06  0.6103516E-03 -0.7019043E-03 -0.7324219E-02  0.1831055E-02 -0.7657138E-02  0.6774902E-02  0.2417034E+07  0.1350235E+07 -0.3329191E-03  0.1708984E-02
  0.1150000E+01  0.6775548E+06  0.4191260E+06  0.3290592E-02  0.4302979E-02  0.2122962E-02 -0.2563477E-02  0.6368887E-03  0.2075195E-02  0.2304871E+07  0.1614330E+07 -0.1507303E-01  0.4394531E-02
  0.1200000E+01  0.6351978E+06  0.4763197E+06 -0.1424154E-02 -0.3601074E-02 -0.7832846E-02 -0.2014160E-02 -0.4221599E-02  0.1116943E-01  0.2158270E+07  0.1868208E+07 -0.7425944E-02 -0.2929688E-02
  0.1250000E+01  0.5872574E+06  0.5246958E+06  0.7763671E-02  0.3540039E-02  0.1845703E-01  0.1556396E-01  0.3759765E-02  0.6347656E-02  0.1984903E+07  0.2097213E+07  0.6250000E-02 -0.1708984E-02
  0.1300000E+01  0.5364618E+06  0.5617960E+06  0.8591873E-02 -0.5798340E-02 -0.1352164E-01  0.6958008E-02  0.9577825E-02  0.6835938E-02  0.1792108E+07  0.2288476E+07  0.8451022E-03  0.4028320E-02
  0.1350000E+01  0.4868773E+06  0.5867527E+06  0.1718027E-02 -0.3784180E-02  0.1283999E-01  0.7080078E-02 -0.9449148E-02  0.6225586E-02  0.1596554E+07  0.2436008E+07 -0.8138022E-02 -0.6347656E-02
  0.1400000E+01  0.4398876E+06  0.5992755E+06  0.3662110E-02  0.7507324E-02  0.5580357E-02  0.5554199E-02  0.2267020E-02  0.2124023E-01  0.1404418E+07  0.2536748E+07  0.3487723E-03 -0.7812500E-02
  0.1450000E+01  0.3978106E+06  0.6009775E+06 -0.3114897E-02 -0.5493164E-03 -0.4209321E-02  0.7019043E-02 -0.1498518E-01 -0.2359009E-01  0.1226023E+07  0.2594804E+07 -0.2609779E-02  0.5371094E-02
  0.1500000E+01  0.3610311E+06  0.5932944E+06 -0.5289713E-03 -0.9033203E-02 -0.2604166E-02 -0.1037598E-02 -0.4842122E-02  0.4943848E-02  0.1063395E+07  0.2612734E+07  0.5045572E-02  0.4150391E-02
  0.1550000E+01  0.3304110E+06  0.5790783E+06  0.5709740E-03  0.9094238E-02  0.2835182E-02 -0.1770020E-02 -0.3622732E-02 -0.3662109E-02  0.9215194E+06  0.2599611E+07  0.9450605E-03  0.1074219E-01
  0.1600000E+01  0.3051654E+06  0.5591581E+06 -0.4196167E-03 -0.2258301E-02  0.8544922E-02  0.6103516E-04  0.1487732E-02  0.1986694E-01  0.7987362E+06  0.2559466E+07 -0.2670288E-02 -0.2685547E-02
  0.1650000E+01  0.2852346E+06  0.5355723E+06  0.1091235E-02 -0.3051758E-03  0.4216974E-02  0.4760742E-02  0.8285984E-02  0.1098633E-02  0.6961625E+06  0.2500160E+07 -0.2959280E-03 -0.6347656E-02
  0.1700000E+01  0.2699127E+06  0.5102223E+06 -0.5026425E-03  0.3662109E-02 -0.6821577E-02  0.3692627E-02 -0.2333698E-02  0.4882812E-03  0.6112593E+06  0.2427650E+07  0.2549116E-02  0.1708984E-02
  0.1750000E+01  0.2582636E+06  0.4834520E+06 -0.1883371E-02  0.2319336E-02  0.6835938E-02 -0.1571655E-02 -0.5336218E-02  0.4104614E-01  0.5412867E+06  0.2343754E+07 -0.1360212E-02 -0.8300781E-02
  0.1800000E+01  0.2501068E+06  0.4567666E+06 -0.3433228E-02 -0.4882812E-02  0.9087457E-02 -0.3875732E-02 -0.2509224E-02 -0.1251221E-02  0.4862625E+06  0.2254942E+07  0.1356337E-02 -0.2685547E-02
  0.1850000E+01  0.2445611E+06  0.4300762E+06  0.3146610E-02 -0.1037598E-02 -0.1517631E-02 -0.4425049E-03 -0.2705342E-02  0.1380920E-02  0.4426911E+06  0.2161521E+07  0.7093276E-03 -0.2441406E-02
  0.1900000E+01  0.2413837E+06  0.4041098E+06  0.7970710E-03 -0.7324219E-03 -0.9315893E-02  0.3433228E-03 -0.1156456E-02 -0.5569458E-03  0.4101549E+06  0.2067013E+07  0.1678467E-02  0.0000000E+00
  0.1950000E+01  0.2398577E+06  0.3801290E+06  0.1053933E-03 -0.2441406E-03  0.8951825E-02 -0.1342773E-02  0.3255209E-02 -0.2249908E-01  0.3855160E+06  0.1975504E+07 -0.1740089E-02  0.5371094E-02
  0.2000000E+01  0.2395715E+06  0.3558678E+06  0.1583100E-03  0.4821777E-02  0.2319336E-02  0.1754761E-03  0.1098633E-02  0.1427460E-01  0.3671072E+06  0.1880955E+07 -0.3414154E-03  0.1464844E-02
Zone t="Motion of body    1 in DoF   2",I=    40,F=POINT
  0.5000000E-01 -0.9918212E-03  0.3097966E-11  0.5807404E+06  0.4110359E-03  0.2136230E-02  0.1875833E-11 -0.1778938E+07 -0.1229860E-02  0.2868652E-01 -0.4774847E-11  0.1398086E-01  0.2156197E-06
  0.9999999E-01 -0.6332398E-02 -0.1236913E-09  0.5842499E+06  0.4896892E-01 -0.6866456E-03  0.2837623E-09 -0.1787744E+07 -0.1511755E+00 -0.1945496E-01 -0.2328306E-09  0.9174348E-02 -0.4302437E-06
  0.1500000E+00  0.4933675E-02 -0.3492460E-09  0.5900976E+06  0.8390860E+00 -0.3611247E-02 -0.4132744E-08 -0.1812476E+07 -0.2601125E+01  0.2716064E-01  0.2095476E-08  0.2339681E-01  0.3734604E-06
  0.2000000E+00 -0.1144409E-02 -0.2980232E-07  0.5926649E+06  0.6193003E+01  0.2517700E-02 -0.1308508E-06 -0.1820625E+07 -0.1924673E+02  0.1983643E-02  0.8381903E-07  0.5264283E-02  0.4721340E-05
  0.2500000E+00 -0.1281738E-02  0.1713634E-06  0.5964612E+06  0.2904646E+02 -0.1998901E-02  0.1136214E-06 -0.1835659E+07 -0.9061891E+02 -0.2484131E-01 -0.1087785E-05  0.2291870E-01  0.1667626E-04
  0.3000000E+00  0.2797444E-02  0.5513430E-06  0.6016231E+06  0.1019766E+03  0.2517700E-02  0.4544854E-06 -0.1857860E+07 -0.3198376E+03  0.1973470E-01 -0.2056360E-05  0.1271566E-02 -0.1040846E-04
  0.3500000E+00  0.5100796E-02  0.5364418E-06  0.6073906E+06  0.2928017E+03 -0.3291539E-02  0.3248453E-05 -0.1880164E+07 -0.9234485E+03 -0.3313337E-02  0.2503395E-05  0.2663749E-01  0.2785027E-04
  0.4000001E+00  0.7171629E-02 -0.1072884E-05  0.6144361E+06  0.7254576E+03  0.9536741E-04  0.3099442E-05 -0.1905201E+07 -0.2301428E+04  0.8010862E-02 -0.2074242E-04  0.1441955E-01  0.3576279E-06
  0.4500001E+00  0.2305772E-02  0.9536743E-06  0.6235123E+06  0.1605761E+04  0.2373589E-03 -0.2384186E-04 -0.1942635E+07 -0.5134652E+04 -0.2800835E-01 -0.6198883E-05  0.3211126E-01  0.5996227E-04
  0.5000001E+00  0.2319336E-02  0.2622604E-05  0.6334811E+06  0.3247573E+04  0.6942749E-02 -0.3361702E-04 -0.1978498E+07 -0.1046215E+05 -0.2258301E-01 -0.8678436E-04  0.9155273E-04  0.2404451E-03
  0.5500002E+00 -0.2552378E-02  0.5388260E-04  0.6461412E+06  0.6108903E+04  0.3329189E-03  0.7510185E-04 -0.2029264E+07 -0.1986762E+05 -0.1109730E-03 -0.3528595E-03  0.1417680E-01  0.4348755E-03
  0.5999997E+00 -0.7680261E-02 -0.1010895E-03  0.6603125E+06  0.1081430E+05  0.1525879E-03 -0.1044273E-03 -0.2085500E+07 -0.3552669E+05 -0.1017253E-03 -0.2231598E-03  0.1375835E-01  0.5035400E-03
  0.6500000E+00  0.1436674E-01  0.8010864E-04  0.6755228E+06  0.1816744E+05  0.5634014E-03 -0.2250671E-03 -0.2143244E+07 -0.6028548E+05  0.4366361E-01  0.1487732E-03  0.1751239E-01  0.1256943E-02
  0.7000000E+00  0.9329659E-02  0.1144409E-04  0.6925376E+06  0.2918335E+05 -0.1656668E-02  0.5912781E-04 -0.2214451E+07 -0.9802617E+05  0.1534598E-01 -0.1159668E-02 -0.6539481E-04  0.1428604E-02
  0.7500001E+00  0.5696614E-03 -0.7629395E-05  0.7095862E+06  0.4504100E+05 -0.1017253E-02  0.5569458E-03 -0.2285968E+07 -0.1531892E+06 -0.1383463E-01 -0.2593994E-03  0.2083333E-01  0.1893997E-02
  0.8000000E+00 -0.9155274E-03 -0.6561279E-03  0.7254909E+06  0.6699299E+05 -0.3700256E-02  0.3280640E-03 -0.2352585E+07 -0.2307113E+06  0.7476807E-02  0.2304077E-02  0.2426147E-01  0.2346039E-02
  0.8500000E+00  0.2656824E-02  0.1022339E-02  0.7397282E+06  0.9617612E+05 -0.2154182E-03  0.1220703E-03 -0.2420138E+07 -0.3359886E+06 -0.7826861E-02  0.1312256E-02  0.4265280E-01  0.5622864E-02
  0.9000000E+00 -0.8544922E-02  0.1464844E-02  0.7500998E+06  0.1336034E+06  0.1237657E-02 -0.1258850E-03 -0.2476980E+07 -0.4738352E+06  0.8544922E-02  0.3479004E-02  0.4201253E-01  0.6904602E-02
  0.9500000E+00  0.2826891E-02  0.7934570E-03  0.7543731E+06  0.1796780E+06 -0.5412854E-02  0.1136780E-02 -0.2512685E+07 -0.6471748E+06 -0.8223684E-02  0.1129150E-02  0.7067229E-02  0.4379272E-02
  0.1000000E+01  0.2807617E-02  0.3021240E-02  0.7497405E+06  0.2337225E+06 -0.4577636E-02 -0.1678467E-03 -0.2514097E+07 -0.8548588E+06  0.2270508E-01 -0.2380371E-02  0.3598022E-01  0.1707458E-01
  0.1050000E+01 -0.2325149E-03  0.2014160E-02  0.7359835E+06  0.2936710E+06  0.9881882E-03 -0.9918213E-03 -0.2484575E+07 -0.1092169E+07  0.3138951E-02  0.1220703E-02  0.2816336E-01  0.6103516E-02
  0.1100000E+01  0.6325462E-02  0.1342773E-02  0.7120721E+06  0.3567729E+06 -0.5132502E-03 -0.1205444E-02 -0.2417034E+07 -0.1350235E+07  0.1575817E-01  0.2026367E-01  0.1991966E-01  0.7141113E-02
  0.1150000E+01 -0.9871774E-02  0.1647949E-02  0.6775551E+06  0.4191259E+06  0.2786388E-03 -0.5798340E-03 -0.2304871E+07 -0.1614329E+07 -0.4235310E-01 -0.1464844E-02  0.6289275E-02  0.6652832E-02
  0.1200000E+01  0.2339681E-02 -0.4882812E-03  0.6351977E+06  0.4763196E+06 -0.1818339E-02 -0.8697510E-03 -0.2158270E+07 -0.1868207E+07  0.9969076E-02 -0.2069092E-01  0.2047221E-01  0.1599121E-01
  0.1250000E+01 -0.9765624E-03  0.1220703E-03  0.5872574E+06  0.5246957E+06 -0.2685547E-02 -0.1678467E-03 -0.1984903E+07 -0.2097213E+07  0.3222656E-02  0.2258301E-02  0.2517090E-01  0.7385254E-02
  0.1300000E+01 -0.1314603E-02 -0.5004883E-02  0.5364617E+06  0.5617959E+06 -0.3286508E-03  0.6103516E-03 -0.1792108E+07 -0.2288477E+07 -0.1619779E-01  0.5059814E-01  0.1746545E-01  0.2017212E-01
  0.1350000E+01  0.5063658E-02  0.5981445E-02  0.4868773E+06  0.5867524E+06  0.1164189E-02 -0.2136230E-02 -0.1596553E+07 -0.2436008E+07 -0.5154080E-02  0.1763916E-01  0.1661513E-01  0.2716064E-01
  0.1400000E+01  0.8719309E-03  0.2441406E-03  0.4398877E+06  0.5992754E+06  0.5667551E-03  0.2944946E-02 -0.1404418E+07 -0.2536749E+07  0.2349854E-01  0.3967285E-02 -0.2136230E-02  0.6713867E-03
  0.1450000E+01  0.2146753E-02  0.7812500E-02  0.3978106E+06  0.6009777E+06  0.3493736E-02  0.1144409E-03 -0.1226022E+07 -0.2594804E+07  0.3746296E-02 -0.4354858E-01  0.1946811E-01  0.2642822E-01
  0.1500000E+01 -0.7446288E-02  0.6103516E-02  0.3610312E+06  0.5932946E+06 -0.2797444E-02 -0.2059937E-03 -0.1063395E+07 -0.2612734E+07  0.1139323E-01  0.1156616E-01 -0.2298991E-02  0.2056885E-01
  0.1550000E+01 -0.3977130E-02 -0.1342773E-02  0.3304109E+06  0.5790783E+06 -0.2165764E-03  0.1068115E-02 -0.9215194E+06 -0.2599612E+07 -0.5434098E-02 -0.9063721E-02  0.7668772E-02  0.2716064E-01
  0.1600000E+01  0.1907349E-03 -0.1220703E-03  0.3051656E+06  0.5591580E+06  0.1840591E-02 -0.2059937E-03 -0.7987364E+06 -0.2559465E+07 -0.3433228E-03  0.3073120E-01  0.1401901E-01  0.1269531E-01
  0.1650000E+01 -0.1165217E-02  0.1245117E-01  0.2852345E+06  0.5355722E+06  0.1840302E-02 -0.1068115E-03 -0.6961624E+06 -0.2500160E+07 -0.2182469E-02 -0.2502441E-02  0.2903794E-02  0.1202393E-01
  0.1700000E+01  0.1310461E-02  0.1464844E-02  0.2699127E+06  0.5102222E+06  0.6013759E-03 -0.9269714E-03 -0.6112592E+06 -0.2427651E+07 -0.5385456E-02  0.3189087E-02  0.9500842E-02  0.6530762E-02
  0.1750000E+01 -0.8719309E-05  0.2929688E-02  0.2582635E+06  0.4834521E+06 -0.6103516E-03 -0.8010864E-04 -0.5412868E+06 -0.2343754E+07 -0.3557478E-02 -0.1954651E-01  0.9381977E-02  0.1873779E-01
  0.1800000E+01  0.1568265E-02  0.2807617E-02  0.2501068E+06  0.4567665E+06  0.1203749E-02  0.6275177E-03 -0.4862623E+06 -0.2254942E+07  0.5018447E-02 -0.4638672E-02  0.3844368E-02  0.1507568E-01
  0.1850000E+01 -0.1876419E-02 -0.1220703E-03  0.2445610E+06  0.4300760E+06  0.4783837E-03  0.1773834E-03 -0.4426911E+06 -0.2161521E+07  0.8577916E-03 -0.1441193E-01  0.1482680E-01  0.1446533E-01
  0.1900000E+01  0.2810830E-03  0.2685547E-02  0.2413836E+06  0.4041097E+06 -0.9637131E-04  0.1144409E-04 -0.4101549E+06 -0.2067012E+07 -0.2891139E-02 -0.1127625E-01  0.1062996E-01  0.1605225E-01
  0.1950000E+01  0.2905039E-03  0.5981445E-02  0.2398576E+06  0.3801290E+06 -0.9703027E-03  0.1993179E-03 -0.3855161E+06 -0.1975505E+07  0.3756010E-02 -0.1280975E-01  0.4000787E-02  0.7263184E-02
  0.2000000E+01 -0.3814698E-04  0.2807617E-02  0.2395715E+06  0.3558678E+06 -0.5798340E-03 -0.5054474E-04 -0.3671073E+06 -0.1880955E+07 -0.1464844E-02 -0.1316452E-01  0.9781838E-02  0.1654053E-01
Zone t="Motion of body    1 in DoF   3",I=    40,F=POINT
  0.5000000E-01 -0.3356933E-01  0.5900860E-05  0.2155304E-02 -0.1306459E-04  0.2711200E+06  0.3790765E+02 -0.1786804E+00  0.8288026E-04 -0.7812499E-01  0.2002716E-04 -0.5340576E-03  0.1490116E-06
  0.9999999E-01 -0.1144409E-03  0.1144409E-04  0.7009507E-02  0.2887845E-04  0.2749199E+06  0.2970110E+03 -0.1457215E+00 -0.8130074E-04  0.4882813E-01 -0.4768372E-04  0.5531312E-03  0.1430511E-05
  0.1500000E+00 -0.2237956E-02 -0.1220703E-03 -0.1736959E-01  0.1051426E-03  0.2766515E+06  0.9680687E+03  0.1993815E+00 -0.3690720E-03 -0.6673177E-01  0.3738403E-03  0.1780192E-03  0.1192093E-05
  0.2000000E+00  0.8697511E-02  0.3089905E-03 -0.3653527E-01  0.3721714E-03  0.2774755E+06  0.2184796E+04  0.3219604E+00 -0.3881454E-02 -0.3173828E-01 -0.1876831E-02  0.3814698E-04  0.6675720E-05
  0.2500000E+00  0.1452637E-01  0.4463196E-03  0.3108215E-01 -0.4191399E-03  0.2773614E+06  0.4005069E+04  0.5747070E+00 -0.3814697E-05  0.5957031E-01 -0.2349854E-02 -0.3204345E-03  0.9536743E-06
  0.3000000E+00  0.2853394E-01 -0.2792358E-02 -0.4078547E-01  0.2470016E-03  0.2761725E+06  0.6402321E+04  0.5391439E-01  0.1159668E-01 -0.8626302E-01  0.3570557E-02 -0.5086263E-04  0.2479553E-04
  0.3500000E+00  0.8108957E-02 -0.1152039E-02  0.8675712E-02  0.1163483E-02  0.2733548E+06  0.9271140E+04  0.4063198E+00 -0.1402283E-01  0.8510046E-01  0.1220703E-03 -0.1525879E-03  0.0000000E+00
  0.4000001E+00 -0.1667022E-01  0.5035400E-03  0.2753257E-01 -0.3147125E-03  0.2697094E+06  0.1243901E+05 -0.2226257E+00 -0.3768921E-01 -0.3173827E-01 -0.1831055E-03  0.2098083E-03 -0.5340576E-04
  0.4500001E+00  0.4984536E-01 -0.2243042E-02 -0.2924600E-02  0.4615784E-03  0.2650071E+06  0.1569534E+05  0.4001192E+00  0.2319336E-01 -0.5642359E-01 -0.2331543E-01  0.3221299E-03 -0.7629395E-04
  0.5000001E+00  0.1794433E-01  0.4074097E-02  0.3974914E-02 -0.9918213E-03  0.2590114E+06  0.1881209E+05 -0.6469727E-01 -0.7797241E-02 -0.6640625E-01 -0.7202148E-02  0.1220703E-03 -0.7629395E-04
  0.5500002E+00 -0.3545587E-01  0.8850098E-03  0.1935091E-01  0.5455017E-03  0.2534054E+06  0.2156238E+05  0.1462624E+00  0.2563477E-02  0.7457384E-01  0.1611328E-01  0.4161487E-04 -0.2288818E-04
  0.5999997E+00  0.4170738E-02 -0.3906250E-02  0.8627577E-02  0.3311157E-02  0.2480773E+06  0.2378188E+05  0.3631593E+00 -0.1468201E+00  0.4394533E-01 -0.1220703E-02  0.1271566E-04  0.1373291E-03
  0.6500000E+00 -0.7512019E-03 -0.7110596E-02 -0.1439021E-01  0.6637573E-02  0.2417862E+06  0.2530701E+05 -0.3248948E+00 -0.8670044E-01  0.7211538E-01 -0.1416016E-01 -0.2347506E-04 -0.1525879E-04
  0.7000000E+00  0.1691546E-01 -0.1040649E-01  0.2010890E-02 -0.2410889E-02  0.2377598E+06  0.2613907E+05 -0.3799874E+00  0.4153442E-01  0.5301339E-01 -0.1464844E-02  0.8719308E-04 -0.9155273E-04
  0.7500001E+00 -0.2138265E-01  0.1330566E-01  0.3573099E-02 -0.2899170E-02  0.2321393E+06  0.2611399E+05  0.1953125E-02  0.4455566E-02 -0.9635416E-01 -0.5004883E-02  0.4069010E-04  0.1220703E-03
  0.8000000E+00  0.3805161E-02 -0.2166748E-02 -0.2715588E-02  0.6217957E-02  0.2292093E+06  0.2553609E+05  0.6484985E-01  0.8206177E-01  0.4272461E-01  0.4357910E-01  0.8106232E-04 -0.1525879E-03
  0.8500000E+00 -0.1019646E-01  0.1953125E-02  0.1883787E-02 -0.6980896E-02  0.2256308E+06  0.2411435E+05  0.3820083E-01 -0.2249146E-01 -0.7352941E-01  0.2905273E-01 -0.1795152E-04  0.0000000E+00
  0.9000000E+00  0.1649433E-01  0.8300781E-02  0.6951226E-03  0.1159668E-01  0.2235038E+06  0.2237457E+05  0.1654731E-01  0.3250122E-02  0.8680555E-02  0.9240723E-01 -0.2331204E-04 -0.1525879E-03
  0.9500000E+00 -0.4216244E-02 -0.6530762E-02 -0.2733030E-02  0.1225281E-01  0.2227169E+06  0.2037568E+05 -0.4702919E-01  0.1484680E-01 -0.1130757E-01 -0.3210449E-01  0.1806962E-04  0.1525879E-04
  0.1000000E+01 -0.1190948E-01 -0.1220703E-03  0.6008148E-04 -0.5844116E-02  0.2212531E+06  0.1770262E+05 -0.4357910E-01  0.8012390E-01 -0.9570312E-01 -0.2685547E-02 -0.1106262E-03  0.1373291E-03
  0.1050000E+01 -0.5493164E-02  0.3051758E-02 -0.2688453E-03 -0.1255798E-01  0.2214529E+06  0.1555345E+05 -0.1745024E+00 -0.2430725E-01  0.2325149E-01 -0.2087402E-01 -0.1089913E-04  0.1678467E-03
  0.1100000E+01  0.2774325E-03 -0.6164551E-02  0.5132502E-03  0.8735657E-02  0.2220862E+06  0.1333415E+05 -0.4316850E-01  0.4650879E-01  0.2397017E-01 -0.2856445E-01  0.4855069E-04  0.2136230E-03
  0.1150000E+01  0.7403831E-02 -0.4608154E-02  0.7055533E-02 -0.5722046E-03  0.2221814E+06  0.1054083E+05 -0.1343835E+00 -0.1023636E+00 -0.2717392E-01 -0.7678223E-01 -0.6634257E-05  0.4577637E-04
  0.1200000E+01  0.1637777E-01 -0.1464844E-02 -0.2479553E-02 -0.1249695E-01  0.2231410E+06  0.8711939E+04  0.8097331E-01 -0.3450775E-01  0.2766927E-01 -0.5285645E-01 -0.3814697E-04  0.0000000E+00
  0.1250000E+01 -0.5029297E-02 -0.1757812E-01  0.3591919E-02 -0.3326416E-02  0.2247030E+06  0.7860328E+04 -0.9121093E-01 -0.3032684E-01  0.4531249E-01 -0.4614258E-01  0.6103515E-04  0.7629395E-04
  0.1300000E+01  0.8685773E-03 -0.2014160E-02 -0.3230755E-02 -0.1598358E-02  0.2254210E+06  0.5354866E+04 -0.1183143E+00  0.5683899E-02  0.4732573E-01  0.2624512E-02  0.2347506E-04  0.3051758E-04
  0.1350000E+01  0.5154080E-02 -0.7873535E-02 -0.3987066E-02  0.3700256E-02  0.2263914E+06  0.3840123E+04  0.1195385E+00  0.3749847E-02  0.1736111E-01 -0.1770020E-01  0.2260562E-04 -0.4577637E-04
  0.1400000E+01  0.1373291E-02 -0.2441406E-03  0.2953666E-02 -0.1281738E-02  0.2274975E+06  0.3249173E+04  0.6818499E-01 -0.8304596E-02 -0.5580357E-02  0.3118896E-01  0.1089914E-04  0.3814697E-04
  0.1450000E+01  0.9849811E-02  0.5615234E-02 -0.2202001E-02  0.1098633E-02  0.2285594E+06  0.2954496E+04  0.1402546E+00  0.1992035E-01  0.1751077E-01  0.3248596E-01  0.2104660E-04  0.0000000E+00
  0.1500000E+01 -0.4353840E-02 -0.5798340E-03 -0.4048665E-02 -0.7476807E-03  0.2295002E+06  0.1693329E+04 -0.3613281E-01 -0.4184914E-01 -0.2343750E-01 -0.7171631E-03  0.1017252E-03  0.2288818E-04
  0.1550000E+01  0.5276588E-02  0.4882812E-03  0.4877890E-02  0.8163452E-03  0.2302910E+06  0.1103388E+04  0.1685358E-01  0.2619171E-01 -0.1008064E-01  0.7278442E-02 -0.9844380E-05  0.1525879E-04
  0.1600000E+01  0.8010864E-02  0.4898071E-02  0.1473427E-02 -0.2048492E-02  0.2309790E+06  0.9715535E+03  0.8041382E-01  0.1531029E-01 -0.3662110E-02  0.1605988E-01 -0.2861023E-04  0.1525879E-04
  0.1650000E+01 -0.1135624E-01  0.3967285E-03  0.4577637E-03 -0.3795624E-02  0.2315520E+06  0.1057586E+04  0.3240412E-01  0.2897263E-02 -0.4734848E-02  0.8438110E-02  0.1849550E-04  0.1907349E-04
  0.1700000E+01  0.1267377E-01 -0.1831055E-03  0.1175825E-02 -0.6122589E-03  0.2321734E+06  0.6553579E+03 -0.6491269E-01 -0.1776409E-01 -0.2872243E-01 -0.5058289E-02  0.0000000E+00  0.0000000E+00
  0.1750000E+01  0.2755302E-02 -0.1396179E-02 -0.6125315E-03 -0.5226135E-03  0.2326696E+06  0.5112155E+03 -0.1979632E+00 -0.6497860E-02 -0.5468751E-01 -0.1297760E-01 -0.7847379E-04 -0.1525879E-04
  0.1800000E+01  0.1717462E-01 -0.2120972E-02 -0.8053251E-03  0.4816055E-03  0.2330292E+06  0.5400755E+03 -0.7039389E-01 -0.1089191E-01 -0.7595487E-02 -0.1273346E-01  0.4238553E-05 -0.1907349E-04
  0.1850000E+01  0.1651249E-01 -0.4806519E-03 -0.8870719E-02 -0.1546860E-02  0.2333580E+06  0.6080474E+03 -0.9145378E-01  0.5327225E-02 -0.3589528E-01 -0.3452301E-02  0.4948798E-04 -0.1907349E-05
  0.1900000E+01 -0.3710295E-02  0.2239227E-02 -0.3017627E-02  0.9536743E-04  0.2337627E+06  0.4819818E+03 -0.1156456E-01 -0.1006126E-01 -0.3597862E-01  0.7595062E-02 -0.4015471E-04  0.3814697E-05
  0.1950000E+01  0.6745168E-02  0.3429413E-02 -0.3419534E-02  0.1630783E-03  0.2341205E+06  0.2785105E+03  0.8400942E-01  0.7581711E-02  0.3205129E-01  0.1849174E-01  0.5086264E-04 -0.5722046E-05
  0.2000000E+01 -0.9918213E-03  0.1258850E-02 -0.2180100E-02 -0.2384186E-03  0.2342722E+06  0.3801916E+03  0.6958008E-02 -0.4069805E-02  0.8789063E-02  0.1791000E-02 -0.4959107E-04  0.1907349E-05
Zone t="Motion of body    1 in DoF   4",I=    40,F=POINT
  0.5000000E-01  0.3051758E-02 -0.1136868E-10 -0.1774685E+07 -0.1231355E-02  0.3890991E-02  0.1170974E-10  0.8095956E+07  0.3441761E-02 -0.1037597E-01 -0.9094947E-11 -0.8117675E-01  0.9757093E-07
  0.9999999E-01  0.2746582E-01  0.1280569E-08 -0.1784608E+07 -0.1511656E+00 -0.4508973E-01 -0.1324224E-08  0.8128424E+07  0.4706064E+00 -0.4272461E-01 -0.9313226E-09 -0.5767823E-01  0.9583600E-06
  0.1500000E+00  0.9969074E-02 -0.2398156E-07 -0.1809070E+07 -0.2593362E+01  0.2197266E-01  0.1862645E-07  0.8224604E+07  0.8032340E+01 -0.2848307E-02 -0.4097819E-07 -0.2482096E-01  0.1034013E-04
  0.2000000E+00 -0.8850099E-02  0.1378357E-06 -0.1817228E+07 -0.1920205E+02 -0.8010865E-02 -0.4153699E-06  0.8246578E+07  0.5969623E+02  0.0000000E+00 -0.5662441E-06 -0.2334595E-01 -0.1156703E-04
  0.2500000E+00  0.8300781E-02 -0.1043081E-05 -0.1832046E+07 -0.9039846E+02  0.1464844E-01  0.6407499E-06  0.8307752E+07  0.2820173E+03 -0.8642577E-01  0.2592802E-05 -0.1118164E+00  0.2271682E-04
  0.3000000E+00  0.2441406E-02 -0.1400709E-05 -0.1854192E+07 -0.3188797E+03 -0.1668294E-01 -0.5960464E-06  0.8405679E+07  0.1000111E+04  0.1298014E+00  0.6079674E-05 -0.5666097E-01  0.1810491E-04
  0.3500000E+00  0.1604353E-01  0.1072884E-05 -0.1876594E+07 -0.9207260E+03 -0.6103516E-02 -0.5602837E-05  0.8493404E+07  0.2903806E+04  0.1499721E-01  0.1144409E-04 -0.5458287E-01  0.8434057E-05
  0.4000001E+00 -0.2838134E-01 -0.2622604E-05 -0.1901526E+07 -0.2295948E+04 -0.1510620E-01 -0.1227856E-04  0.8581686E+07  0.7283608E+04  0.2319335E-01 -0.3290176E-04 -0.8407591E-01 -0.1932383E-03
  0.4500001E+00 -0.4611544E-02 -0.2145767E-04 -0.1938892E+07 -0.5119522E+04 -0.1681857E-01 -0.2813339E-04  0.8742102E+07  0.1637042E+05 -0.4286023E-01  0.1506805E-03 -0.7080076E-01  0.2593994E-03
  0.5000001E+00 -0.2612305E-01 -0.5149841E-04 -0.1974644E+07 -0.1043901E+05  0.2807617E-02 -0.4291534E-04  0.8868390E+07  0.3362966E+05  0.3417969E-02  0.2288818E-03 -0.7812499E-01 -0.3809929E-03
  0.5500002E+00 -0.8877838E-02 -0.7820129E-04 -0.2025420E+07 -0.1981651E+05  0.6880324E-02 -0.1459122E-03  0.9075918E+07  0.6444741E+05  0.1775568E-02  0.4386902E-03 -0.7246535E-01 -0.8640289E-03
  0.5999997E+00  0.7324222E-02  0.4806519E-03 -0.2081466E+07 -0.3543104E+05  0.2024334E-01 -0.4482269E-03  0.9304736E+07  0.1163968E+06 -0.1090495E+00  0.8239746E-03 -0.2543133E-01 -0.9117126E-03
  0.6500000E+00  0.2253606E-02 -0.2288818E-04 -0.2139259E+07 -0.6016698E+05 -0.1690204E-02  0.4577637E-04  0.9519205E+07  0.1996516E+06 -0.4807692E-01 -0.3463745E-02 -0.9624774E-01 -0.2824783E-02
  0.7000000E+00  0.1569475E-01  0.7629395E-04 -0.2210462E+07 -0.9779020E+05 -0.4220145E-01 -0.1583099E-02  0.9822117E+07  0.3284724E+06  0.5092076E-01  0.2441406E-03 -0.5231585E-03 -0.3116608E-02
  0.7500001E+00  0.3776041E-01 -0.2288818E-03 -0.2281540E+07 -0.1528242E+06 -0.1708984E-01 -0.1045227E-02  0.1011930E+08  0.5197640E+06 -0.3385416E-01  0.5462646E-02 -0.7014973E-01 -0.4776001E-02
  0.8000000E+00  0.1770020E-01 -0.3173828E-02 -0.2348510E+07 -0.2303104E+06  0.9765625E-02 -0.2517700E-03  0.1039838E+08  0.7931478E+06  0.2563477E-01  0.1342773E-02 -0.3875732E-01 -0.1551819E-01
  0.8500000E+00  0.2211627E-01 -0.6622314E-02 -0.2415902E+07 -0.3353803E+06 -0.4437615E-01  0.8392334E-03  0.1070606E+08  0.1171583E+07  0.4250919E-01  0.1098633E-02 -0.8846507E-01 -0.8819580E-02
  0.9000000E+00  0.7595486E-02  0.4577637E-02 -0.2472494E+07 -0.4728882E+06  0.1695421E-01 -0.2731323E-02  0.1099308E+08  0.1677101E+07 -0.1551649E+00 -0.2502441E-02 -0.3811307E-01 -0.1831055E-01
  0.9500000E+00  0.4111842E-02  0.1159668E-02 -0.2508277E+07 -0.6458969E+06  0.3263775E-01 -0.1281738E-02  0.1120809E+08  0.2326228E+07  0.3238076E-01  0.3051758E-02 -0.8660567E-01 -0.7781982E-02
  0.1000000E+01 -0.1513672E-01 -0.7324219E-03 -0.2509966E+07 -0.8536839E+06 -0.1843262E-01  0.2075195E-02  0.1128776E+08  0.3122167E+07  0.6201171E-01  0.4394531E-02 -0.6738281E-01 -0.3375244E-01
  0.1050000E+01  0.2092634E-01  0.3784180E-02 -0.2480660E+07 -0.1090908E+07 -0.2859933E-01  0.2227783E-02  0.1127319E+08  0.4056848E+07  0.3441220E-01  0.7446289E-02 -0.1030041E+00 -0.1611328E-01
  0.1100000E+01 -0.5770597E-02 -0.4882812E-03 -0.2413404E+07 -0.1348694E+07  0.5992543E-02  0.1586914E-02  0.1111850E+08  0.5103244E+07 -0.1868786E+00 -0.1660156E-01 -0.1071999E+00 -0.6103516E-02
  0.1150000E+01 -0.5944294E-02  0.2197266E-02 -0.2301397E+07 -0.1612885E+07  0.2260955E-01  0.4516602E-02  0.1077813E+08  0.6210772E+07  0.5349864E-01 -0.3027344E-01 -0.1063604E+00 -0.6274414E-01
  0.1200000E+01 -0.3011068E-01 -0.2441406E-02 -0.2154895E+07 -0.1866796E+07  0.2939860E-01  0.6713867E-03  0.1029693E+08  0.7320675E+07  0.1509603E+00 -0.3564453E-01 -0.7568360E-01 -0.5895996E-01
  0.1250000E+01 -0.8593749E-02 -0.1513672E-01 -0.1982032E+07 -0.2095714E+07  0.1835937E-01 -0.2014160E-02  0.9695702E+07  0.8374018E+07 -0.6250000E-02  0.9033203E-02 -0.3574219E-01 -0.4650879E-01
  0.1300000E+01 -0.1464844E-01 -0.7324219E-02 -0.1789328E+07 -0.2286998E+07 -0.1558744E-01  0.3051758E-03  0.8983560E+07  0.9311458E+07  0.7812501E-01 -0.7592773E-01 -0.1539964E-01 -0.1059570E+00
  0.1350000E+01 -0.2929688E-01  0.2001953E-01 -0.1593412E+07 -0.2434548E+07  0.2441406E-01  0.6286621E-02  0.8228142E+07  0.1010204E+08  0.4195603E-01 -0.1142578E+00 -0.7396558E-01 -0.3222656E-01
  0.1400000E+01  0.1360212E-01  0.3808594E-01 -0.1401446E+07 -0.2535421E+07  0.5493165E-02  0.6042480E-02  0.7464276E+07  0.1072644E+08 -0.2441406E-02  0.6176758E-01 -0.2580915E-01 -0.9448242E-01
  0.1450000E+01 -0.5051185E-02  0.1318359E-01 -0.1223372E+07 -0.2593699E+07 -0.2879175E-01  0.7537842E-02  0.6728017E+07  0.1118748E+08 -0.4040948E-02  0.8300781E-02 -0.3308526E-01 -0.9643555E-01
  0.1500000E+01  0.1106771E-01  0.1367188E-01 -0.1060911E+07 -0.2611504E+07  0.8138019E-03  0.1101685E-01  0.6029954E+07  0.1148560E+08  0.9440104E-02 -0.3247070E-01 -0.3401692E-01 -0.9326172E-01