VARIABLES="w (rad/s)"
"A   1   1" "B   1   1"
"A   1   2" "B   1   2"
"A   1   3" "B   1   3"
"A   1   4" "B   1   4"
"A   1   5" "B   1   5"
"A   1   6" "B   1   6"
Zone t="Motion of body    1 in DoF   1",I=    41,F=POINT
  0.1000000E+00  0.5842498E+06  0.4898510E-01 -0.1132965E-01 -0.1506123E-08  0.4165649E-01  0.1397541E-04  0.1663208E-01 -0.4511094E-09  0.1788241E+07  0.1513060E+00 -0.6332397E-02  0.3856258E-09
  0.1475000E+00  0.5900921E+06  0.7464234E+00 -0.1241393E-02 -0.1146691E-07 -0.7448358E-02  0.1980355E-03 -0.4386256E-01 -0.5052425E-07  0.1813005E+07  0.2314862E+01  0.2275887E-02 -0.3492460E-09
  0.1950000E+00  0.5929054E+06  0.5197014E+01 -0.6260016E-02  0.1066364E-06  0.1658904E-01  0.5198233E-03  0.1565004E-02 -0.3725290E-08  0.1823320E+07  0.1616338E+02 -0.3364759E-02  0.5960464E-07
  0.2425000E+00  0.5960376E+06  0.2353760E+02  0.5411364E-02 -0.1937151E-06  0.1635994E-02  0.4172623E-03  0.1132611E-02  0.2011657E-06  0.1836101E+07  0.7345818E+02  0.2642759E-02 -0.2980232E-07
  0.2900000E+00  0.6004896E+06  0.8078748E+02  0.3314840E-02 -0.2644956E-06 -0.5051185E-02  0.7783473E-03  0.8629109E-02  0.8642673E-06  0.1854169E+07  0.2532840E+03 -0.1104947E-01  0.1400709E-05
  0.3375000E+00  0.6056749E+06  0.2284126E+03 -0.5606192E-02  0.4768372E-05 -0.4249855E-02 -0.3532171E-03  0.1365379E-01 -0.1847744E-05  0.1873040E+07  0.7195509E+03 -0.1627604E-02  0.9834766E-06
  0.3850000E+00  0.6121821E+06  0.5599448E+03 -0.4399288E-02  0.2920628E-05  0.5580357E-01  0.5707979E-02 -0.1268263E-01  0.8702278E-05  0.1898829E+07  0.1774609E+04  0.4755986E-03 -0.7033348E-05
  0.4325000E+00  0.6199992E+06  0.1229486E+04 -0.4233652E-02  0.1120567E-04  0.1411218E-03  0.1615047E-02  0.3316361E-02  0.4768372E-05  0.1928400E+07  0.3921930E+04  0.1270096E-02 -0.6675720E-05
  0.4800000E+00  0.6294394E+06  0.2474148E+04  0.8742015E-02 -0.1800060E-04  0.3776550E-01  0.3554344E-02  0.6993612E-02  0.2765656E-04  0.1965682E+07  0.7952760E+04  0.2797445E-02 -0.2574921E-04
  0.5275000E+00  0.6402918E+06  0.4634850E+04  0.8735838E-02 -0.8106232E-05  0.4743965E-02  0.3643036E-03  0.6942388E-02  0.1182556E-03  0.2006001E+07  0.1501443E+05 -0.5901030E-02 -0.1716614E-04
  0.5750000E+00  0.6530524E+06  0.8184891E+04 -0.1077403E-01  0.2956390E-04 -0.5625849E-02  0.4581451E-02  0.2759851E-02  0.4196167E-04  0.2057531E+07  0.2676627E+05 -0.2122962E-03 -0.4959106E-04
  0.6225000E+00  0.6668662E+06  0.1373954E+05  0.8334118E-02  0.5912781E-04 -0.1078533E-01 -0.2296448E-02  0.1980579E-01 -0.1716614E-03  0.2110406E+07  0.4535199E+05  0.0000000E+00 -0.3051758E-04
  0.6700000E+00  0.6821421E+06  0.2206993E+05  0.9929600E-02 -0.5340576E-04 -0.5465835E-02  0.2693176E-02  0.3370598E-02  0.3128052E-03  0.2170932E+07  0.7361070E+05  0.2368528E-02  0.5531311E-03
  0.7175000E+00  0.6985875E+06  0.3411916E+05  0.8506642E-04 -0.6675720E-04  0.2892258E-02 -0.7133484E-02  0.7315713E-02  0.1220703E-03  0.2240473E+07  0.1151555E+06  0.5444251E-02  0.3509521E-03
  0.7650000E+00  0.7144352E+06  0.5092794E+05  0.4388148E-02 -0.6103516E-03 -0.1340380E-01  0.1106262E-01 -0.5345563E-02  0.9918213E-04  0.2306653E+07  0.1739187E+06  0.6701900E-02 -0.4577637E-04
  0.8125000E+00  0.7293188E+06  0.7356591E+05 -0.1081731E-01 -0.7934570E-03 -0.4356971E-02 -0.4898071E-02  0.1277043E-01 -0.8544922E-03  0.2370648E+07  0.2543247E+06  0.4206731E-02  0.7324219E-03
  0.8600000E+00  0.7422463E+06  0.1029814E+06 -0.1078761E-01  0.1373291E-03  0.3122729E-02  0.3051758E-04 -0.2114939E-01 -0.9307861E-03  0.2433670E+07  0.3609658E+06 -0.4258267E-03  0.2441406E-03
  0.9075000E+00  0.7511412E+06  0.1399597E+06  0.1681409E-02  0.3356934E-03 -0.2663352E-01 -0.1663208E-01  0.4654141E-01 -0.6103516E-04  0.2484395E+07  0.4976875E+06  0.5245997E-02  0.3967285E-03
  0.9550000E+00  0.7542085E+06  0.1847240E+06  0.6774583E-02 -0.1449585E-02 -0.1444392E-01  0.6927490E-02 -0.1086490E-01 -0.2136230E-03  0.2514742E+07  0.6665978E+06  0.7669339E-03 -0.3356934E-03
  0.1002500E+01  0.7493212E+06  0.2366095E+06 -0.2678850E-02 -0.2746582E-03  0.3896509E-02 -0.5859375E-02  0.1388131E-01 -0.1086426E-01  0.2514044E+07  0.8663328E+06  0.9132442E-02  0.1220703E-02
  0.1050000E+01  0.7359836E+06  0.2936708E+06 -0.1511347E-02 -0.2777100E-02  0.9765625E-02 -0.1892090E-02 -0.1627604E-02 -0.5157471E-02  0.2485092E+07  0.1092440E+07 -0.5812872E-02 -0.9155273E-03
  0.1097500E+01  0.7135889E+06  0.3536237E+06  0.4504645E-02  0.1373291E-02  0.2091045E-01  0.1593018E-01 -0.1757368E-01 -0.5615234E-02  0.2422111E+07  0.1337415E+07  0.1334710E-02 -0.3295898E-02
  0.1145000E+01  0.6814288E+06  0.4130476E+06  0.6130169E-02  0.1678467E-02  0.1353968E-01  0.1953125E-01  0.8848765E-02  0.7324219E-03  0.2318342E+07  0.1588431E+07 -0.2665291E-02  0.1831055E-02
  0.1192500E+01  0.6418999E+06  0.4681924E+06 -0.2968586E-02  0.1770020E-02 -0.1668550E-01 -0.2429199E-01 -0.2932758E-01  0.3259277E-01  0.2182265E+07  0.1831588E+07 -0.1023650E-03 -0.2441406E-02
  0.1240000E+01  0.5971495E+06  0.5158282E+06  0.3691643E-02 -0.7141113E-02  0.7186397E-02 -0.1525879E-02 -0.6891066E-02  0.1025391E-01  0.2021842E+07  0.2054365E+07  0.6891066E-03  0.7202148E-02
  0.1287500E+01  0.5491378E+06  0.5536058E+06  0.1090337E-02  0.6103516E-04  0.4835406E-02  0.2075195E-02  0.1185149E-01  0.1763916E-01  0.1841470E+07  0.2244971E+07 -0.6636832E-03 -0.9155273E-02
  0.1335000E+01  0.5015795E+06  0.5806028E+06  0.8686651E-03 -0.3112793E-02 -0.4571922E-03  0.5126953E-02 -0.1645892E-02 -0.9033203E-02  0.1655705E+07  0.2397075E+07  0.1179556E-01  0.6347656E-02
  0.1382500E+01  0.4558535E+06  0.5961840E+06 -0.1942529E-02  0.1586914E-02  0.1059561E-02  0.1037598E-02  0.1271474E-01  0.2624512E-01  0.1470849E+07  0.2506836E+07  0.5297807E-02  0.7324219E-02
  0.1430000E+01  0.4139271E+06  0.6013772E+06 -0.2304824E-02 -0.6591797E-02  0.2731643E-02 -0.4943848E-02  0.2134096E-03 -0.1123047E-01  0.1295662E+07  0.2576532E+07  0.5121831E-03  0.1953125E-02
  0.1477500E+01  0.3768979E+06  0.5977544E+06 -0.1755664E-02  0.7690430E-02 -0.5783365E-02  0.2136230E-02  0.1817629E-02 -0.8117676E-02  0.1134734E+07  0.2609488E+07  0.3222161E-02 -0.1220703E-02
  0.1525000E+01  0.3449991E+06  0.5870150E+06  0.2881660E-02 -0.1953125E-02  0.8244749E-02 -0.1647949E-02  0.8004611E-04  0.2444458E-01  0.9901429E+06  0.2610195E+07 -0.3121798E-02  0.1049805E-01
  0.1572500E+01  0.3182884E+06  0.5704891E+06  0.1998926E-02 -0.8544922E-03  0.2406474E-02  0.6103516E-02 -0.9819965E-02  0.5035400E-02  0.8636878E+06  0.2584091E+07 -0.8150959E-03  0.7324219E-03
  0.1620000E+01  0.2965913E+06  0.5501649E+06  0.1977991E-02 -0.5310059E-02 -0.5651403E-02 -0.9155273E-03  0.4709503E-02 -0.2932739E-01  0.7554519E+06  0.2537833E+07  0.2637322E-02 -0.4638672E-02
  0.1667500E+01  0.2794042E+06  0.5268824E+06  0.1601372E-02  0.2685547E-02  0.0000000E+00  0.2014160E-02  0.3294251E-03  0.7766724E-02  0.6648724E+06  0.2476489E+07  0.3660279E-02  0.3662109E-02
  0.1715000E+01  0.2659649E+06  0.5019215E+06  0.4448626E-04  0.4821777E-02 -0.4199503E-02 -0.8239746E-03  0.1284763E-01  0.7324219E-03  0.5886918E+06  0.2402876E+07 -0.2224313E-02  0.7324219E-03
  0.1762500E+01  0.2559758E+06  0.4768323E+06  0.1662234E-02 -0.7263184E-02 -0.6856715E-02 -0.1953125E-02  0.1662234E-02 -0.1321411E-01  0.5267244E+06  0.2322708E+07  0.1038896E-03 -0.3173828E-02
  0.1810000E+01  0.2487705E+06  0.4512435E+06  0.1736636E-02  0.6103516E-04  0.4248856E-02 -0.2532959E-02 -0.6272121E-02 -0.4026794E-01  0.4767759E+06  0.2236208E+07 -0.9779114E-03  0.7812500E-02
  0.1857500E+01  0.2439346E+06  0.4261087E+06  0.4600227E-03 -0.6103516E-04 -0.1708656E-02  0.8544922E-03  0.4337357E-02  0.1309204E-01  0.4373586E+06  0.2147363E+07  0.2119390E-02  0.1708984E-02
  0.1905000E+01  0.2411765E+06  0.4015519E+06 -0.6067471E-03 -0.2014160E-02  0.1512262E-01  0.6103516E-03 -0.5767102E-03 -0.9368896E-02  0.4076691E+06  0.2057724E+07 -0.4485523E-03 -0.4882813E-02
  0.1952500E+01  0.2398227E+06  0.3788411E+06 -0.1798427E-02 -0.3112793E-02  0.1588008E-01  0.4959106E-03 -0.6252000E-03  0.2113342E-02  0.3847642E+06  0.1970701E+07  0.8366935E-03  0.2441406E-03
  0.2000000E+01  0.2395715E+06  0.3558679E+06  0.1320839E-02 -0.2807617E-02  0.2807617E-02 -0.3433228E-03 -0.5493164E-03  0.8850098E-03  0.3674140E+06  0.1880981E+07 -0.2174377E-02  0.2685547E-02
Zone t="Motion of body    1 in DoF   2",I=    41,F=POINT
  0.1000000E+00  0.7553101E-02 -0.6548362E-10  0.5842500E+06  0.4894837E-01 -0.1792908E-02 -0.1127773E-09 -0.1788241E+07 -0.1512315E+00 -0.2189636E-01  0.8585630E-09 -0.4615784E-02  0.5546153E-06
  0.1475000E+00  0.5379370E-02 -0.7683411E-08  0.5900919E+06  0.7465292E+00 -0.2818997E-02 -0.2095476E-08 -0.1813005E+07 -0.2315276E+01 -0.2586236E-02 -0.1443550E-07  0.4137977E-02 -0.4914182E-06
  0.1950000E+00 -0.4616762E-02 -0.2002344E-07  0.5929055E+06  0.5196958E+01  0.1525879E-02 -0.6938353E-07 -0.1823321E+07 -0.1616321E+02 -0.6651267E-02 -0.3017485E-06 -0.5105826E-02  0.3876165E-05
  0.2425000E+00 -0.7550741E-03 -0.1881272E-06  0.5960372E+06  0.2353839E+02  0.4845059E-02 -0.2272427E-06 -0.1836101E+07 -0.7346264E+02  0.1667455E-01 -0.1080334E-05  0.8400199E-02 -0.3363937E-05
  0.2900000E+00 -0.6313982E-03 -0.1192093E-05  0.6004896E+06  0.8078610E+02  0.1525879E-02  0.3688037E-06 -0.1854167E+07 -0.2532782E+03 -0.2494023E-01  0.1281500E-05  0.5998283E-02 -0.2467260E-04
  0.3375000E+00  0.1446759E-02  0.5662441E-06  0.6056748E+06  0.2284155E+03  0.9720413E-03  0.2115965E-05 -0.1873042E+07 -0.7195635E+03 -0.4611545E-02  0.1144409E-04  0.2303512E-01  0.1898408E-04
  0.3850000E+00  0.2853592E-02 -0.9536743E-06  0.6121820E+06  0.5599471E+03 -0.9710139E-03  0.5424023E-05 -0.1898830E+07 -0.1774603E+04  0.3249924E-02 -0.1621246E-04  0.9967755E-02 -0.1135468E-04
  0.4325000E+00  0.7267770E-02  0.4887581E-05  0.6199992E+06  0.1229484E+04 -0.4498256E-02 -0.9298325E-05 -0.1928400E+07 -0.3921911E+04  0.3951409E-02 -0.2574921E-04 -0.1111334E-02  0.8517504E-04
  0.4800000E+00  0.4577637E-02 -0.5960464E-05  0.6294396E+06  0.2474159E+04  0.1033147E-02 -0.1275539E-04 -0.1965682E+07 -0.7952792E+04 -0.7883708E-02  0.4959106E-04  0.1630783E-01  0.5304813E-04
  0.5275000E+00  0.7925893E-02 -0.5292892E-04  0.6402916E+06  0.4634847E+04  0.4049726E-03  0.5841255E-04 -0.2006001E+07 -0.1501441E+05  0.1457901E-01 -0.2574921E-04  0.1570715E-01  0.1006126E-03
  0.5750000E+00  0.4086702E-02  0.4100800E-04  0.6530525E+06  0.8184884E+04  0.2786388E-02  0.9536743E-06 -0.2057531E+07 -0.2676624E+05  0.7642663E-02  0.2479553E-04  0.1008407E-02  0.1392365E-03
  0.6225000E+00  0.6275100E-02 -0.1888275E-03  0.6668662E+06  0.1373954E+05 -0.1225605E-02 -0.8678436E-04 -0.2110406E+07 -0.4535205E+05  0.1078533E-01  0.9536743E-04 -0.7084000E-02 -0.1111031E-03
  0.6700000E+00  0.2095237E-02  0.1907349E-05  0.6821419E+06  0.2206991E+05  0.2824015E-02  0.7343292E-04 -0.2170933E+07 -0.7361061E+05 -0.2186334E-02  0.1678467E-03  0.1314078E-01  0.2851486E-03
  0.7175000E+00  0.2041594E-02 -0.2212524E-03  0.6985870E+06  0.3411916E+05 -0.6805314E-03  0.1544952E-03 -0.2240472E+07 -0.1151555E+06  0.1148397E-01  0.1556396E-02  0.4040655E-03  0.1678467E-03
  0.7650000E+00  0.1595690E-02 -0.3585815E-03  0.7144352E+06  0.5092792E+05 -0.3231273E-02 -0.4806519E-03 -0.2306653E+07 -0.1739186E+06  0.1436121E-01 -0.4653931E-03  0.3191381E-03  0.1525879E-03
  0.8125000E+00  0.4957933E-02 -0.3356934E-03  0.7293186E+06  0.7356591E+05  0.2009465E-02 -0.1907349E-03 -0.2370648E+07 -0.2543248E+06 -0.3620793E-01  0.8544922E-03  0.2129657E-01  0.8926392E-03
  0.8600000E+00 -0.4967978E-03  0.1220703E-03  0.7422464E+06  0.1029814E+06 -0.5322833E-04  0.1945496E-03 -0.2433670E+07 -0.3609662E+06  0.1263286E-01  0.5645752E-03  0.7097111E-04  0.3715515E-02
  0.9075000E+00 -0.9415892E-03 -0.4119873E-03  0.7511408E+06  0.1399598E+06 -0.9415892E-03  0.1159668E-02 -0.2484394E+07 -0.4976875E+06  0.1250968E-01  0.1037598E-02  0.9516777E-02  0.1708984E-02
  0.9550000E+00  0.2300802E-02  0.2441406E-02  0.7542084E+06  0.1847239E+06  0.2684269E-02 -0.9536743E-03 -0.2514742E+07 -0.6665981E+06 -0.4729426E-02 -0.2929688E-02  0.8691918E-02  0.4096985E-02
  0.1002500E+01  0.2800616E-02  0.1617432E-02  0.7493215E+06  0.2366094E+06  0.2739733E-02  0.1815796E-02 -0.2514042E+07 -0.8663326E+06  0.2557084E-02  0.1678467E-02  0.2362258E-01  0.1953125E-02
  0.1050000E+01 -0.1162575E-02  0.1586914E-02  0.7359836E+06  0.2936708E+06 -0.2630325E-02  0.1045227E-02 -0.2485092E+07 -0.1092440E+07  0.3069197E-01 -0.1101685E-01  0.1371838E-01  0.3051758E-03
  0.1097500E+01 -0.7340903E-02  0.2563477E-02  0.7135889E+06  0.3536238E+06 -0.1668387E-03 -0.3585815E-02 -0.2422113E+07 -0.1337415E+07 -0.1290219E-01 -0.5920410E-02  0.1451497E-01 -0.2960205E-02
  0.1145000E+01  0.5543805E-02  0.1220703E-02  0.6814287E+06  0.4130477E+06 -0.2878514E-02  0.9613037E-03 -0.2318344E+07 -0.1588431E+07  0.1705786E-01 -0.9155273E-02  0.1591179E-01 -0.2655029E-02
  0.1192500E+01  0.3889872E-02  0.1647949E-02  0.6418994E+06  0.4681923E+06  0.1522680E-02 -0.2761841E-02 -0.2182266E+07 -0.1831588E+07  0.5015887E-02  0.9948730E-02 -0.1353778E-01  0.2038574E-01
  0.1240000E+01  0.3543977E-02 -0.1281738E-01  0.5971499E+06  0.5158282E+06  0.1230548E-04 -0.1647949E-02 -0.2021843E+07 -0.2054366E+07 -0.3076369E-01 -0.1586914E-01  0.1461890E-01  0.2053833E-01
  0.1287500E+01 -0.7584951E-03 -0.2807617E-02  0.5491376E+06  0.5536059E+06 -0.3081386E-03  0.4577637E-04 -0.1841469E+07 -0.2244970E+07 -0.1659208E-01  0.2587891E-01  0.6992377E-02  0.1327515E-01
  0.1335000E+01  0.2194522E-02 -0.2441406E-02  0.5015794E+06  0.5806028E+06  0.9143844E-04  0.1831055E-03 -0.1655704E+07 -0.2397076E+07  0.7543671E-02  0.3771973E-01  0.8869528E-02 -0.6805420E-02
  0.1382500E+01  0.4194098E-02 -0.6103516E-03  0.4558532E+06  0.5961839E+06 -0.6622259E-03 -0.1419067E-02 -0.1470849E+07 -0.2506838E+07 -0.9668498E-02  0.9826660E-02  0.6820927E-02  0.1220703E-01
  0.1430000E+01  0.2560916E-03  0.3662109E-02  0.4139271E+06  0.6013774E+06 -0.1472527E-02 -0.2128601E-02 -0.1295662E+07 -0.2576531E+07 -0.1024366E-01  0.2459717E-01 -0.1707277E-02  0.7385254E-02
  0.1477500E+01 -0.7353136E-02 -0.6591797E-02  0.3768978E+06  0.5977545E+06 -0.1435514E-02  0.1014709E-02 -0.1134734E+07 -0.2609488E+07 -0.5163719E-02 -0.3112793E-02  0.5597471E-02  0.1849365E-01
  0.1525000E+01  0.2001153E-02  0.1831055E-02  0.3449990E+06  0.5870149E+06 -0.8604957E-03  0.8392334E-03 -0.9901423E+06 -0.2610194E+07  0.6523758E-02 -0.4425049E-02  0.2001153E-04  0.1721191E-01
  0.1572500E+01  0.3105127E-02  0.4882813E-03  0.3182885E+06  0.5704888E+06  0.1183830E-02  0.4348755E-03 -0.8636876E+06 -0.2584093E+07  0.3609710E-02 -0.1821899E-01  0.4948797E-02  0.2716064E-01
  0.1620000E+01  0.1563555E-02  0.3051758E-02  0.2965912E+06  0.5501646E+06  0.3390842E-03  0.6179810E-03 -0.7554519E+06 -0.2537832E+07  0.3240138E-02  0.5187988E-03  0.7704746E-02  0.7263184E-02
  0.1667500E+01  0.6954530E-03  0.2319336E-02  0.2794042E+06  0.5268824E+06  0.2168715E-02 -0.3089905E-03 -0.6648726E+06 -0.2476488E+07  0.3989704E-02 -0.8819580E-02  0.2443236E-02  0.7202148E-02
  0.1715000E+01  0.1992985E-02  0.1953125E-02  0.2659648E+06  0.5019215E+06  0.1957396E-02  0.2288818E-04 -0.5886917E+06 -0.2402876E+07 -0.1530327E-02 -0.2630615E-01  0.7860723E-02  0.5493164E-02
  0.1762500E+01  0.3030114E-02 -0.2197266E-02  0.2559760E+06  0.4768324E+06 -0.9003768E-03 -0.4196167E-03 -0.5267248E+06 -0.2322708E+07 -0.7618573E-03 -0.3326416E-02  0.8778674E-02 -0.4150391E-02
  0.1810000E+01  0.1660763E-02  0.6713867E-02  0.2487704E+06  0.4512433E+06  0.1079075E-02  0.5092621E-03 -0.4767758E+06 -0.2236206E+07  0.2832571E-02 -0.9201050E-02 -0.3334172E-02  0.4028320E-02
  0.1857500E+01  0.2645131E-02  0.2075195E-02  0.2439347E+06  0.4261090E+06  0.6243166E-03 -0.1106262E-03 -0.4373582E+06 -0.2147363E+07  0.3943052E-03 -0.1748657E-01  0.4599201E-02 -0.3662109E-02
  0.1905000E+01 -0.1562925E-02  0.5249023E-02  0.2411766E+06  0.4015519E+06 -0.8009863E-04 -0.3337860E-03 -0.4076694E+06 -0.2057724E+07  0.2947630E-02  0.5546570E-02 -0.2744379E-02  0.7873535E-02
  0.1952500E+01  0.1223048E-02  0.2197266E-02  0.2398228E+06  0.3788411E+06 -0.1125360E-02  0.9536743E-05 -0.3847642E+06 -0.1970700E+07  0.1875600E-02 -0.1891327E-01  0.4210820E-02  0.8300781E-02
  0.2000000E+01  0.6046295E-03  0.2563477E-02  0.2395715E+06  0.3558678E+06 -0.1678467E-03  0.9536743E-06 -0.3674140E+06 -0.1880981E+07  0.6774902E-02  0.1120758E-01  0.4279137E-02  0.1892090E-01
Zone t="Motion of body    1 in DoF   3",I=    41,F=POINT
  0.1000000E+00 -0.2479553E-02  0.1285076E-03  0.6275177E-02  0.3141165E-04  0.2749199E+06  0.2970112E+03 -0.7156372E-01 -0.2095699E-03  0.3540039E-01 -0.2098083E-04 -0.9536743E-04  0.2384186E-06
  0.1475000E+00  0.3827629E-02 -0.1153946E-03 -0.1483853E-01 -0.3433228E-03  0.2768049E+06  0.9223734E+03 -0.1934504E+00  0.5884171E-03 -0.4965572E-02  0.7629395E-04 -0.1810365E-03 -0.1668930E-05
  0.1950000E+00  0.1764542E-01  0.6484985E-04  0.6250235E-02 -0.5125999E-04  0.2777757E+06  0.2036219E+04  0.2867087E+00 -0.4673004E-03 -0.2754407E-01  0.9155273E-04 -0.7825020E-04  0.5245209E-05
  0.2425000E+00 -0.1182949E-01  0.9422302E-03 -0.1746109E-01  0.8635521E-03  0.2771490E+06  0.3693814E+04  0.2214884E+00 -0.1399231E-01 -0.6241946E-01  0.2014160E-02 -0.2044992E-03 -0.1239777E-04
  0.2900000E+00  0.1378553E-01 -0.1415253E-02  0.2598598E-01  0.4062653E-03  0.2764025E+06  0.5881021E+04  0.1953125E+00 -0.8293152E-02  0.1027074E+00  0.4852295E-02 -0.1315413E-03  0.1907349E-05
  0.3375000E+00 -0.1401548E-01 -0.1815796E-02  0.3164786E-02 -0.2002716E-02  0.2743119E+06  0.8518083E+04 -0.1857277E+00 -0.9490967E-02  0.4918981E-01 -0.7995605E-02 -0.3390842E-03 -0.1144409E-04
  0.3850000E+00 -0.1335640E-01  0.6103516E-04  0.1406979E-02  0.1905441E-02  0.2707075E+06  0.1147092E+05 -0.1718496E+00 -0.1338959E-01  0.7736404E-01 -0.6896973E-02 -0.3963322E-04  0.3814697E-05
  0.4325000E+00 -0.6350479E-03 -0.3051758E-04  0.3823517E-01  0.5912781E-03  0.2661527E+06  0.1456327E+05  0.4117933E+00 -0.3250122E-02  0.3951409E-01  0.6103516E-04 -0.1058413E-03 -0.4577637E-04
  0.4800000E+00  0.9473165E-02  0.5767822E-02 -0.4609426E-02 -0.1903534E-02  0.2613028E+06  0.1759642E+05 -0.1042684E-01  0.6088257E-01  0.4374186E-01  0.1037598E-01 -0.1112620E-03 -0.5340576E-04
  0.5275000E+00  0.7694480E-02 -0.5798340E-03  0.5785323E-03  0.4264832E-02  0.2567233E+06  0.2037809E+05  0.2240077E+00 -0.1760864E-01 -0.1120039E+00 -0.9155273E-02 -0.5785323E-04  0.2288818E-04
  0.5750000E+00  0.1364003E-01  0.2441406E-02  0.9858505E-02 -0.3231049E-02  0.2503020E+06  0.2275113E+05 -0.3184443E-01  0.3039551E-01  0.2377717E-01 -0.2331543E-01 -0.1326851E-04  0.1602173E-03
  0.6225000E+00  0.6765343E-02  0.2746582E-03 -0.1131847E-01 -0.3829956E-02  0.2452988E+06  0.2455294E+05  0.1411898E-01 -0.4699707E-02 -0.2353163E-01 -0.2197266E-01  0.1715848E-03 -0.1678467E-03
  0.6700000E+00 -0.4896477E-02  0.8026123E-02  0.1968270E-01  0.5264282E-03  0.2397392E+06  0.2572334E+05  0.2091593E+00 -0.3588867E-01 -0.7433535E-01  0.4577637E-01  0.0000000E+00 -0.3051758E-04
  0.7175000E+00  0.3827989E-03  0.4882813E-03  0.1379671E-02  0.1922607E-02  0.2355430E+06  0.2620530E+05 -0.3783754E+00 -0.3466797E-01 -0.8166377E-01  0.3173828E-01  0.2445660E-03 -0.3051758E-04
  0.7650000E+00  0.4268472E-02  0.4547119E-02 -0.1059638E-01  0.6935120E-02  0.2309225E+06  0.2598860E+05 -0.1308466E-01  0.1766968E-01 -0.1659518E-01 -0.3076172E-01  0.2493266E-04  0.1678467E-03
  0.8125000E+00 -0.9624775E-02 -0.1281738E-02  0.3532997E-02  0.5950928E-02  0.2286783E+06  0.2529074E+05  0.1086238E+00 -0.8941650E-01 -0.8653846E-01 -0.2697754E-01  0.3756010E-04 -0.6103516E-04
  0.8600000E+00  0.2271076E-02  0.5065918E-02  0.6717859E-02 -0.1071167E-01  0.2250036E+06  0.2376847E+05 -0.2723871E+00 -0.5505371E-01  0.3520167E-01 -0.1054688E+00  0.3326771E-04 -0.1068115E-03
  0.9075000E+00  0.8779058E-02 -0.4150391E-02  0.6967077E-02  0.5020142E-02  0.2234000E+06  0.2211795E+05 -0.1441977E+00 -0.7833862E-01 -0.5380509E-02  0.2294922E-01 -0.4728964E-04  0.0000000E+00
  0.9550000E+00 -0.8596051E-02  0.4272461E-03 -0.5472393E-03 -0.1094818E-01  0.2225087E+06  0.2009998E+05 -0.1721767E+00  0.3977966E-01  0.3067736E-02  0.2075195E-01  0.2995836E-05 -0.3051758E-04
  0.1002500E+01  0.2054799E-03 -0.1623535E-01  0.1752287E-02  0.2418518E-02  0.2212247E+06  0.1758205E+05 -0.2611878E+00  0.9729004E-01  0.2824969E-01 -0.4455566E-01 -0.7610368E-04 -0.2288818E-03
  0.1050000E+01  0.2165295E-02  0.3906250E-02 -0.3578549E-02  0.1454926E-01  0.2214529E+06  0.1555347E+05 -0.1004464E+00  0.1647949E-01  0.2604167E-01 -0.2172852E-01 -0.1453218E-04  0.1525879E-04
  0.1097500E+01 -0.9885193E-02  0.1159668E-01  0.3142129E-02  0.1480103E-02  0.2221000E+06  0.1348846E+05 -0.1568284E+00  0.5233765E-02 -0.5249858E-01 -0.7330322E-01  0.4866129E-04 -0.1525879E-03
  0.1145000E+01 -0.6383371E-02 -0.6103516E-02  0.1799071E-03  0.5935669E-02  0.2221256E+06  0.1078006E+05 -0.1102364E+00  0.3706360E-01 -0.2814547E-01  0.2752686E-01  0.0000000E+00  0.3051758E-04
  0.1192500E+01  0.6397815E-04  0.3662109E-03  0.1183596E-02 -0.6774902E-02  0.2229518E+06  0.8911765E+04 -0.4893049E-01 -0.1243591E-02  0.2047301E-01 -0.1812744E-01 -0.5758034E-04 -0.1831055E-03
  0.1240000E+01  0.4208473E-02 -0.6713867E-02  0.2513393E-02 -0.5828857E-02  0.2244609E+06  0.8144341E+04 -0.2185452E-01  0.1032410E+00  0.6300403E-02 -0.4638672E-01 -0.5537464E-04  0.3051758E-04
  0.1287500E+01 -0.6470912E-02 -0.3875732E-02 -0.5718342E-03  0.5378723E-02  0.2252046E+06  0.5857658E+04 -0.6124848E-01  0.3408051E-01  0.5537014E-01  0.1525879E-01 -0.1777723E-04  0.1525879E-04
  0.1335000E+01  0.8823809E-02 -0.8514404E-02  0.7943714E-03  0.4386902E-03  0.2260822E+06  0.4197587E+04 -0.1609316E-01  0.1839447E-01 -0.2194522E-02 -0.7476807E-02 -0.2285961E-04  0.1525879E-04
  0.1382500E+01 -0.1346526E-02 -0.2136230E-02  0.2290198E-03  0.3139496E-02  0.2271130E+06  0.3351662E+04 -0.1659980E+00 -0.2954102E-01  0.1836573E-01 -0.7125854E-01  0.5518549E-04 -0.7629395E-04
  0.1430000E+01 -0.6402289E-04  0.1214600E-01 -0.3654640E-02 -0.3936768E-02  0.2281788E+06  0.3351050E+04 -0.1140461E+00 -0.2758026E-02  0.4507212E-01 -0.2029419E-01 -0.5335241E-04 -0.7629395E-05
  0.1477500E+01 -0.1858939E-02  0.2136230E-03 -0.4146466E-02 -0.3673553E-02  0.2290871E+06  0.2175029E+04 -0.2205941E+00  0.5336571E-01  0.2643824E-01 -0.2593994E-03  0.0000000E+00 -0.1525879E-04
  0.1525000E+01 -0.7524334E-02 -0.3952026E-02  0.1228207E-01  0.2696991E-02  0.2299049E+06  0.1306342E+04 -0.2010758E+00 -0.1809883E-01 -0.2305328E-01 -0.1551056E-01 -0.3001729E-04 -0.2288818E-04
  0.1572500E+01  0.5608636E-02  0.4135132E-02 -0.9752040E-03  0.1918793E-02  0.2306158E+06  0.9820754E+03  0.6893382E-01 -0.1750755E-01 -0.8694356E-02  0.2082062E-01  0.1358493E-03  0.3051758E-04
  0.1620000E+01 -0.5274643E-03 -0.8544922E-03 -0.1756645E-02 -0.1602173E-02  0.2312147E+06  0.9896109E+03 -0.1265914E-01 -0.1604080E-02  0.2411265E-02  0.1881409E-01  0.1130281E-03  0.7629395E-05
  0.1667500E+01  0.2214469E-02 -0.3921509E-02 -0.2818415E-02 -0.3013611E-03  0.2317537E+06  0.9452205E+03 -0.1713011E-01  0.8693695E-02 -0.3279610E-01 -0.2349091E-01 -0.9150698E-04 -0.3814697E-05
  0.1715000E+01  0.2069501E-01  0.6759644E-02  0.7057746E-02 -0.2689362E-03  0.2323558E+06  0.5685463E+03 -0.5879305E-01 -0.5927086E-03  0.1013575E+00  0.3360748E-01 -0.1779451E-04 -0.1525879E-04
  0.1762500E+01  0.6943290E-02  0.3501892E-02  0.1064869E-02 -0.1058578E-02  0.2327720E+06  0.4748211E+03  0.2770390E-01 -0.4688263E-02 -0.1329787E-01  0.1117706E-01 -0.1731494E-04  0.3814697E-05
  0.1810000E+01  0.4720951E-02  0.1052856E-02  0.2999069E-02  0.1131058E-02  0.2330987E+06  0.5423332E+03 -0.8484224E-01  0.5853653E-02  0.7553522E-02  0.1198196E-01  0.5479676E-04 -0.3814697E-05
  0.1857500E+01 -0.5093109E-03 -0.5111694E-03  0.6896234E-02  0.1745224E-03  0.2334120E+06  0.5966972E+03 -0.2234396E-01 -0.6190300E-02 -0.2838997E-01 -0.2704620E-02  0.4518080E-04 -0.9536743E-05
  0.1905000E+01  0.5975358E-02  0.2490997E-02  0.4177144E-02 -0.3509521E-03  0.2338154E+06  0.4452074E+03 -0.1194431E+00  0.7540226E-02  0.1025263E-02  0.1866913E-01 -0.1601973E-04  0.3814697E-05
  0.1952500E+01  0.5470501E-02 -0.2307892E-02 -0.3153353E-02  0.2121925E-03  0.2341294E+06  0.2843703E+03 -0.9040393E-01 -0.2723932E-02 -0.2700864E-01 -0.1596069E-01 -0.5470501E-04  0.1907349E-05
  0.2000000E+01 -0.5340576E-02 -0.2254486E-02 -0.2059937E-03 -0.2198219E-03  0.2342721E+06  0.3801920E+03 -0.6018066E-01 -0.8153439E-02  0.2148438E-01 -0.9420395E-02 -0.2670288E-04  0.2861023E-05
Zone t="Motion of body    1 in DoF   4",I=    41,F=POINT
  0.1000000E+00 -0.1434326E-01  0.1309672E-09 -0.1785088E+07 -0.1512300E+00 -0.8850098E-02  0.5820766E-09  0.8136928E+07  0.4710298E+00  0.1068115E+00  0.2095476E-08 -0.1525879E-03  0.2428067E-05
  0.1475000E+00 -0.2462096E-01  0.1396984E-08 -0.1809585E+07 -0.2308226E+01  0.4344876E-02  0.1571607E-07  0.8233040E+07  0.7151670E+01  0.3889698E-01  0.7636845E-07 -0.7696637E-01  0.5436013E-05
  0.1950000E+00 -0.1471104E-01  0.1918525E-06 -0.1819738E+07 -0.1611937E+02 -0.9781275E-02 -0.5364418E-06  0.8269580E+07  0.5014749E+02  0.1314603E-01 -0.1117587E-06 -0.2817007E-01 -0.3098603E-04
  0.2425000E+00 -0.1157780E-01 -0.2160668E-06 -0.1832374E+07 -0.7325296E+02  0.5914747E-02 -0.7450581E-07  0.8322656E+07  0.2286145E+03 -0.5939916E-01 -0.7152557E-06 -0.1875101E-01 -0.1803041E-05
  0.2900000E+00  0.7787244E-02 -0.1013279E-05 -0.1850491E+07 -0.2525081E+03 -0.7471545E-02  0.2160668E-05  0.8399590E+07  0.7916470E+03 -0.2693966E-01  0.5781651E-05 -0.2451930E-01 -0.2886355E-04
  0.3375000E+00  0.3616898E-03  0.6139278E-05 -0.1869504E+07 -0.7176131E+03  0.1021774E-01  0.1645088E-04  0.8468489E+07  0.2260627E+04  0.7703993E-01  0.1835823E-04 -0.2441406E-01 -0.1736283E-03
  0.3850000E+00  0.1838981E-01 -0.1668930E-05 -0.1894995E+07 -0.1769584E+04  0.4993786E-02 -0.1311302E-05  0.8573502E+07  0.5608211E+04  0.2473113E-01  0.2002716E-04 -0.4597453E-02 -0.4786253E-04
  0.4325000E+00 -0.1637012E-01 -0.1144409E-04 -0.1924612E+07 -0.3911532E+04 -0.2257948E-02 -0.3814697E-04  0.8684224E+07  0.1247732E+05  0.6548049E-01  0.9346008E-04 -0.5461412E-01 -0.5190372E-03
  0.4800000E+00  0.7629395E-03  0.7438660E-04 -0.1961745E+07 -0.7930505E+04  0.5340576E-02  0.4291534E-04  0.8835786E+07  0.2549134E+05 -0.1017253E+00 -0.4196167E-04  0.5086263E-03 -0.2834797E-03
  0.5275000E+00  0.1272771E-01 -0.4005432E-04 -0.2002340E+07 -0.1497905E+05  0.6942388E-02 -0.1440048E-03  0.8986371E+07  0.4852375E+05  0.1157065E-01  0.3433228E-04 -0.1747168E-01  0.6060600E-03
  0.5750000E+00  0.1486073E-01 -0.1678467E-03 -0.2053408E+07 -0.2669377E+05 -0.1199474E-01 -0.2174377E-03  0.9196969E+07  0.8729384E+05  0.1634681E+00  0.4577637E-03 -0.2823539E-01 -0.6999969E-03
  0.6225000E+00 -0.7843875E-02  0.4119873E-03 -0.2106469E+07 -0.4524855E+05  0.6373149E-02  0.2441406E-03  0.9401773E+07  0.1493573E+06  0.4510228E-01 -0.1953125E-02 -0.2362967E-01 -0.3814697E-04
  0.6700000E+00  0.6194613E-02 -0.2365112E-03 -0.2166910E+07 -0.7345978E+05  0.1639750E-02 -0.7438660E-03  0.9641474E+07  0.2450123E+06 -0.1104099E+00  0.3067017E-02 -0.5666249E-01 -0.1117706E-02
  0.7175000E+00 -0.8166377E-02 -0.2746582E-03 -0.2236258E+07 -0.1148693E+06  0.2977325E-02 -0.1480103E-02  0.9937103E+07  0.3876867E+06 -0.6124782E-02  0.1770020E-02 -0.2586019E-01  0.2063751E-02
  0.7650000E+00  0.4787071E-02 -0.9613037E-03 -0.2302214E+07 -0.1735351E+06 -0.1444100E-01 -0.4577637E-03  0.1021174E+08  0.5926185E+06  0.2233967E-01  0.1892090E-02 -0.7021038E-02 -0.6889343E-02
  0.8125000E+00 -0.1322115E-01 -0.1525879E-02 -0.2366664E+07 -0.2538910E+06 -0.3245192E-01 -0.4577637E-03  0.1048445E+08  0.8777025E+06  0.1802885E-01  0.1708984E-02  0.2193510E-01 -0.7583618E-02
  0.8600000E+00  0.2583348E-01 -0.2807617E-02 -0.2429318E+07 -0.3602952E+06 -0.4967978E-02 -0.1464844E-02  0.1077591E+08  0.1262813E+07 -0.6131904E-01 -0.3295898E-02 -0.5450581E-01 -0.3768921E-02
  0.9075000E+00 -0.4358213E-01 -0.8850098E-02 -0.2479871E+07 -0.4966782E+06  0.2232911E-01 -0.1831055E-03  0.1104030E+08  0.1766113E+07  0.3604941E-01 -0.2490234E-01 -0.8312887E-01 -0.1089478E-01
  0.9550000E+00 -0.5112893E-02 -0.3540039E-02 -0.2510378E+07 -0.6652864E+06  0.1623343E-01  0.1586914E-02  0.1123194E+08  0.2400564E+07  0.6697889E-01  0.3906250E-02 -0.4627168E-01 -0.2398682E-01
  0.1002500E+01 -0.7305954E-02  0.5493164E-02 -0.2509883E+07 -0.8651591E+06  0.1826488E-02 -0.6622314E-02  0.1129866E+08  0.3167515E+07  0.3604271E-01 -0.4028320E-02 -0.3616447E-01 -0.1470947E-01
  0.1050000E+01 -0.1581101E-01  0.9155273E-02 -0.2481157E+07 -0.1091174E+07 -0.2406529E-01  0.3692627E-02  0.1128198E+08  0.4058852E+07 -0.1776414E+00 -0.1440430E-01 -0.2720424E-01 -0.1641846E-01
  0.1097500E+01 -0.6673548E-02  0.1171875E-01 -0.2418430E+07 -0.1335891E+07 -0.7452128E-02 -0.1708984E-02  0.1113908E+08  0.5051392E+07 -0.1090013E+00 -0.1660156E-01 -0.8519896E-01  0.7324219E-02
  0.1145000E+01 -0.3965953E-01 -0.4638672E-02 -0.2314800E+07 -0.1586955E+07 -0.1226034E-01  0.1049805E-01  0.1082735E+08  0.6101234E+07 -0.3070415E-01  0.5932617E-01 -0.8507608E-01  0.1696777E-01
  0.1192500E+01 -0.3521357E-01  0.1635742E-01 -0.2178882E+07 -0.1830171E+07  0.9212854E-03 -0.1123047E-01  0.1038530E+08  0.7158854E+07  0.1801625E+00  0.6176758E-01 -0.2866221E-02 -0.3039551E-01
  0.1240000E+01  0.7875504E-02 -0.2221680E-01 -0.2018953E+07 -0.2052826E+07  0.7087953E-02  0.3662109E-03  0.9835877E+07  0.8174112E+07 -0.1575101E-01  0.8544922E-02 -0.2362651E-02 -0.5053711E-01
  0.1287500E+01  0.2654733E-02 -0.3417969E-02 -0.1838818E+07 -0.2243568E+07 -0.1441141E-01 -0.4516602E-02  0.9175618E+07  0.9093140E+07 -0.7584951E-02 -0.4638672E-02 -0.2540959E-01  0.3234863E-01
  0.1335000E+01 -0.7315075E-03 -0.1513672E-01 -0.1652640E+07 -0.2395664E+07  0.1133837E-01 -0.4272461E-03  0.8464610E+07  0.9885091E+07  0.2926030E-02 -0.2019043E+00 -0.1536166E-01 -0.4968262E-01