VARIABLES="Theta (rad)" "ABS(HKochin)" "ANGLE(HKochin)"
Zone t="Motion of body    1 at frequency  0.0500 rad/s",I=   181,F=POINT
  0.0000000E+00  0.6435850E+00  0.1570719E+01
  0.1745329E-01  0.1119258E+00  0.1570600E+01
  0.3490658E-01  0.6819003E+00 -0.1570704E+01
  0.5235988E-01  0.4607499E+00  0.1570779E+01
  0.6981317E-01  0.6351454E+00  0.1570915E+01
  0.8726647E-01  0.8626009E+01 -0.1570795E+01
  0.1047198E+00  0.1862549E+01  0.1570817E+01
  0.1221731E+00  0.6588696E+00 -0.1570772E+01
  0.1396263E+00  0.5197231E+00  0.1570827E+01
  0.1570796E+00  0.7341457E+00  0.1570774E+01
  0.1745329E+00  0.4502781E+00  0.1570802E+01
  0.1919862E+00  0.7348501E+00 -0.1570883E+01
  0.2094395E+00  0.2089928E+01  0.1570825E+01
  0.2268928E+00  0.7115690E+01 -0.1570806E+01
  0.2443461E+00  0.6137514E+00  0.1570724E+01
  0.2617994E+00  0.6216369E+00  0.1570709E+01
  0.2792527E+00  0.6696079E+00 -0.1570799E+01
  0.2967060E+00  0.1245861E+00 -0.1570875E+01
  0.3141593E+00  0.6115938E+00  0.1570778E+01
  0.3316126E+00  0.3362180E+00  0.1570689E+01
  0.3490659E+00  0.6252661E+00 -0.1570812E+01
  0.3665192E+00  0.2570757E+00  0.1570731E+01
  0.3839725E+00  0.5951495E+00  0.1570826E+01
  0.4014257E+00  0.9295810E+01 -0.1570789E+01
  0.4188790E+00  0.1456593E+01  0.1570773E+01
  0.4363323E+00  0.5182716E+00 -0.1570790E+01
  0.4537856E+00  0.5388451E+00  0.1570755E+01
  0.4712389E+00  0.6634126E+00  0.1570854E+01
  0.4886922E+00  0.3358612E+00  0.1570809E+01
  0.5061455E+00  0.7315485E+00 -0.1570775E+01
  0.5235988E+00  0.2115807E+01  0.1570814E+01
  0.5410521E+00  0.4903969E+01 -0.1570788E+01
  0.5585054E+00  0.5338685E+00  0.1570711E+01
  0.5759587E+00  0.7181407E+00  0.1570800E+01
  0.5934120E+00  0.5962749E+00 -0.1570710E+01
  0.6108653E+00  0.3464447E+00 -0.1570553E+01
  0.6283185E+00  0.5207065E+00  0.1570760E+01
  0.6457719E+00  0.5265397E+00  0.1570809E+01
  0.6632251E+00  0.5076117E+00 -0.1570763E+01
  0.6806784E+00  0.3000783E-01  0.1569843E+01
  0.6981317E+00  0.4945639E+00  0.1570676E+01
  0.7155850E+00  0.9053994E+01 -0.1570785E+01
  0.7330383E+00  0.9014167E+00  0.1570743E+01
  0.7504916E+00  0.3232215E+00 -0.1570651E+01
  0.7679449E+00  0.5048344E+00  0.1570781E+01
  0.7853982E+00  0.5259297E+00  0.1570713E+01
  0.8028514E+00  0.1890938E+00  0.1570539E+01
  0.8203048E+00  0.6671766E+00 -0.1570707E+01
  0.8377581E+00  0.1932812E+01  0.1570783E+01
  0.8552114E+00  0.2219313E+01 -0.1570782E+01
  0.8726646E+00  0.4006204E+00  0.1570684E+01
  0.8901180E+00  0.7474663E+00  0.1570723E+01
  0.9075713E+00  0.4574119E+00 -0.1570724E+01
  0.9250245E+00  0.5355378E+00 -0.1570705E+01
  0.9424778E+00  0.3781164E+00  0.1570765E+01
  0.9599311E+00  0.6645655E+00  0.1570763E+01
  0.9773844E+00  0.3413889E+00 -0.1570702E+01
  0.9948377E+00  0.2037386E+00 -0.1570519E+01
  0.1012291E+01  0.3461184E+00  0.1570570E+01
  0.1029744E+01  0.7926139E+01 -0.1570794E+01
  0.1047198E+01  0.2610304E+00  0.1570683E+01
  0.1064651E+01  0.1020166E+00 -0.1570764E+01
  0.1082104E+01  0.4232789E+00  0.1570815E+01
  0.1099558E+01  0.3380851E+00  0.1570740E+01
  0.1117011E+01  0.2219230E-01  0.1570829E+01
  0.1134464E+01  0.5328323E+00 -0.1570786E+01
  0.1151917E+01  0.1556347E+01  0.1570756E+01
  0.1169371E+01  0.6881009E+00  0.1570743E+01
  0.1186824E+01  0.2299380E+00  0.1570669E+01
  0.1204277E+01  0.7026107E+00  0.1570781E+01
  0.1221731E+01  0.2802649E+00 -0.1570871E+01
  0.1239184E+01  0.6718592E+00 -0.1570784E+01
  0.1256637E+01  0.2002620E+00  0.1571101E+01
  0.1274090E+01  0.7405152E+00  0.1570834E+01
  0.1291544E+01  0.1417014E+00 -0.1570907E+01
  0.1308997E+01  0.4141033E+00 -0.1570639E+01
  0.1326450E+01  0.1654567E+00  0.1570620E+01
  0.1343904E+01  0.6020010E+01 -0.1570798E+01
  0.1361357E+01  0.4079742E+00 -0.1570712E+01
  0.1378810E+01  0.1281184E+00  0.1571016E+01
  0.1396263E+01  0.2968861E+00  0.1570598E+01
  0.1413717E+01  0.1162606E+00  0.1570725E+01
  0.1431170E+01  0.1440879E+00 -0.1570560E+01
  0.1448623E+01  0.3497050E+00 -0.1570748E+01
  0.1466077E+01  0.1030675E+01  0.1570786E+01
  0.1483530E+01  0.3526664E+01  0.1570813E+01
  0.1500983E+01  0.3355498E-01  0.1572359E+01
  0.1518437E+01  0.5873741E+00  0.1570917E+01
  0.1535890E+01  0.7481243E-01 -0.1571504E+01
  0.1553343E+01  0.7436877E+00 -0.1570773E+01
  0.1570796E+01  0.1569356E-02  0.1614564E+01
  0.1588250E+01  0.7405809E+00  0.1570784E+01
  0.1605703E+01  0.7505864E-01  0.1571349E+01
  0.1623156E+01  0.5855609E+00 -0.1570932E+01
  0.1640610E+01  0.3404416E-01 -0.1571216E+01
  0.1658063E+01  0.3528674E+01 -0.1570812E+01
  0.1675516E+01  0.1032288E+01 -0.1570798E+01
  0.1692969E+01  0.3468801E+00  0.1570639E+01
  0.1710423E+01  0.1475036E+00  0.1570429E+01
  0.1727876E+01  0.1178096E+00 -0.1570717E+01
  0.1745329E+01  0.2963724E+00 -0.1570666E+01
  0.1762783E+01  0.1300287E+00 -0.1571024E+01
  0.1780236E+01  0.4053170E+00  0.1570690E+01
  0.1797689E+01  0.6020945E+01  0.1570794E+01
  0.1815143E+01  0.1666388E+00 -0.1570573E+01
  0.1832596E+01  0.4132142E+00  0.1570722E+01
  0.1850049E+01  0.1404265E+00  0.1570983E+01
  0.1867502E+01  0.7396898E+00 -0.1570833E+01
  0.1884956E+01  0.2013861E+00 -0.1571147E+01
  0.1902409E+01  0.6714996E+00  0.1570782E+01
  0.1919862E+01  0.2815967E+00  0.1570769E+01
  0.1937316E+01  0.7032961E+00 -0.1570768E+01
  0.1954769E+01  0.2257608E+00 -0.1570625E+01
  0.1972222E+01  0.6884018E+00 -0.1570723E+01
  0.1989675E+01  0.1559052E+01 -0.1570761E+01
  0.2007129E+01  0.5319275E+00  0.1570806E+01
  0.2024582E+01  0.2221599E-01 -0.1571397E+01
  0.2042035E+01  0.3361266E+00 -0.1570825E+01
  0.2059489E+01  0.4214628E+00 -0.1570715E+01
  0.2076942E+01  0.1003378E+00  0.1570580E+01
  0.2094395E+01  0.2613397E+00 -0.1570618E+01
  0.2111848E+01  0.7923993E+01  0.1570791E+01
  0.2129302E+01  0.3480032E+00 -0.1570492E+01
  0.2146755E+01  0.2018347E+00  0.1570505E+01
  0.2164208E+01  0.3427797E+00  0.1570777E+01
  0.2181662E+01  0.6670538E+00 -0.1570776E+01
  0.2199115E+01  0.3798567E+00 -0.1570716E+01
  0.2216568E+01  0.5364007E+00  0.1570711E+01
  0.2234021E+01  0.4601336E+00  0.1570706E+01
  0.2251475E+01  0.7457317E+00 -0.1570754E+01
  0.2268928E+01  0.4005232E+00 -0.1570714E+01
  0.2286381E+01  0.2214999E+01  0.1570795E+01
  0.2303835E+01  0.1932205E+01 -0.1570786E+01
  0.2321288E+01  0.6697549E+00  0.1570733E+01
  0.2338741E+01  0.1854268E+00 -0.1570573E+01
  0.2356194E+01  0.5251174E+00 -0.1570699E+01
  0.2373648E+01  0.5042530E+00 -0.1570812E+01
  0.2391101E+01  0.3246205E+00  0.1570737E+01
  0.2408554E+01  0.8992254E+00 -0.1570744E+01
  0.2426008E+01  0.9053677E+01  0.1570790E+01
  0.2443461E+01  0.4966961E+00 -0.1570683E+01
  0.2460914E+01  0.3064868E-01 -0.1569653E+01
  0.2478368E+01  0.5073662E+00  0.1570730E+01
  0.2495821E+01  0.5277608E+00 -0.1570777E+01
  0.2513274E+01  0.5216176E+00 -0.1570747E+01
  0.2530727E+01  0.3516381E+00  0.1570702E+01
  0.2548181E+01  0.5967155E+00  0.1570713E+01
  0.2565634E+01  0.7198965E+00 -0.1570773E+01
  0.2583087E+01  0.5330554E+00 -0.1570585E+01
  0.2600541E+01  0.4903289E+01  0.1570796E+01
  0.2617994E+01  0.2112402E+01 -0.1570814E+01
  0.2635447E+01  0.7331197E+00  0.1570779E+01
  0.2652900E+01  0.3348573E+00 -0.1570853E+01
  0.2670354E+01  0.6653655E+00 -0.1570852E+01
  0.2687807E+01  0.5401720E+00 -0.1570827E+01
  0.2705260E+01  0.5157545E+00  0.1570788E+01
  0.2722714E+01  0.1450797E+01 -0.1570806E+01
  0.2740167E+01  0.9296157E+01  0.1570789E+01
  0.2757620E+01  0.5957217E+00 -0.1570775E+01
  0.2775074E+01  0.2623454E+00 -0.1570707E+01
  0.2792527E+01  0.6250716E+00  0.1570802E+01
  0.2809980E+01  0.3354840E+00 -0.1570712E+01
  0.2827433E+01  0.6123980E+00 -0.1570719E+01
  0.2844887E+01  0.1298160E+00  0.1570873E+01
  0.2862340E+01  0.6690567E+00  0.1570808E+01
  0.2879793E+01  0.6229734E+00 -0.1570721E+01
  0.2897247E+01  0.6157414E+00 -0.1570733E+01
  0.2914700E+01  0.7115685E+01  0.1570804E+01
  0.2932153E+01  0.2091163E+01 -0.1570826E+01
  0.2949607E+01  0.7280259E+00  0.1570871E+01
  0.2967060E+01  0.4476994E+00 -0.1570807E+01
  0.2984513E+01  0.7341451E+00 -0.1570797E+01
  0.3001966E+01  0.5192975E+00 -0.1570842E+01
  0.3019420E+01  0.6511740E+00  0.1570726E+01
  0.3036873E+01  0.1863985E+01 -0.1570809E+01
  0.3054326E+01  0.8633443E+01  0.1570794E+01
  0.3071780E+01  0.6336954E+00 -0.1570896E+01
  0.3089233E+01  0.4620195E+00 -0.1570790E+01
  0.3106686E+01  0.6801977E+00  0.1570713E+01
  0.3124139E+01  0.1040018E+00 -0.1570381E+01
  0.3141593E+01  0.6432674E+00 -0.1570719E+01
Zone t="Motion of body    1 at frequency  0.1000 rad/s",I=   181,F=POINT
  0.0000000E+00  0.2301608E+00 -0.1571029E+01
  0.1745329E-01  0.4412724E+01 -0.1570787E+01
  0.3490658E-01  0.2290511E+01 -0.1570802E+01
  0.5235988E-01  0.7913349E+00 -0.1570848E+01
  0.6981317E-01  0.1602128E+01 -0.1570795E+01
  0.8726647E-01  0.8396541E+00 -0.1570791E+01
  0.1047198E+00  0.2571436E+01 -0.1570793E+01
  0.1221731E+00  0.1823154E+01 -0.1570790E+01
  0.1396263E+00  0.1620675E+01 -0.1570770E+01
  0.1570796E+00  0.2560291E+01 -0.1570780E+01
  0.1745329E+00  0.1496331E+01 -0.1570783E+01
  0.1919862E+00  0.1686081E+01 -0.1570776E+01
  0.2094395E+00  0.2458215E+01 -0.1570768E+01
  0.2268928E+00  0.8216096E+00 -0.1570710E+01
  0.2443461E+00  0.1489415E+01 -0.1570779E+01
  0.2617994E+00  0.7439792E+00 -0.1570813E+01
  0.2792527E+00  0.2144849E+01 -0.1570826E+01
  0.2967060E+00  0.4260748E+01 -0.1570786E+01
  0.3141593E+00  0.2182844E+00 -0.1570566E+01
  0.3316126E+00  0.4137767E+01 -0.1570785E+01
  0.3490659E+00  0.2211316E+01 -0.1570772E+01
  0.3665192E+00  0.7600286E+00 -0.1570719E+01
  0.3839725E+00  0.1556219E+01 -0.1570794E+01
  0.4014257E+00  0.7762649E+00 -0.1570706E+01
  0.4188790E+00  0.2431919E+01 -0.1570801E+01
  0.4363323E+00  0.1781243E+01 -0.1570821E+01
  0.4537856E+00  0.1587029E+01 -0.1570786E+01
  0.4712389E+00  0.2309666E+01 -0.1570806E+01
  0.4886922E+00  0.1224553E+01 -0.1570797E+01
  0.5061455E+00  0.1382712E+01 -0.1570800E+01
  0.5235988E+00  0.2103639E+01 -0.1570806E+01
  0.5410521E+00  0.7217353E+00 -0.1570767E+01
  0.5585054E+00  0.1232132E+01 -0.1570740E+01
  0.5759587E+00  0.6248556E+00 -0.1570748E+01
  0.5934120E+00  0.1791023E+01 -0.1570792E+01
  0.6108653E+00  0.3685482E+01 -0.1570782E+01
  0.6283185E+00  0.1861863E+00 -0.1570583E+01
  0.6457719E+00  0.3454908E+01 -0.1570800E+01
  0.6632251E+00  0.1915297E+01 -0.1570777E+01
  0.6806784E+00  0.6547800E+00 -0.1570722E+01
  0.6981317E+00  0.1359610E+01 -0.1570764E+01
  0.7155850E+00  0.6360855E+00 -0.1570713E+01
  0.7330383E+00  0.2056627E+01 -0.1570801E+01
  0.7504916E+00  0.1564573E+01 -0.1570789E+01
  0.7679449E+00  0.1398865E+01 -0.1570778E+01
  0.7853982E+00  0.1832914E+01 -0.1570769E+01
  0.8028514E+00  0.8336931E+00 -0.1570794E+01
  0.8203048E+00  0.9464187E+00 -0.1570822E+01
  0.8377581E+00  0.1542937E+01 -0.1570802E+01
  0.8552114E+00  0.5518811E+00 -0.1570753E+01
  0.8726646E+00  0.8532850E+00 -0.1570733E+01
  0.8901180E+00  0.4436158E+00 -0.1570677E+01
  0.9075713E+00  0.1259422E+01 -0.1570784E+01
  0.9250245E+00  0.2753199E+01 -0.1570799E+01
  0.9424778E+00  0.1354147E+00 -0.1570842E+01
  0.9599311E+00  0.2433777E+01 -0.1570818E+01
  0.9773844E+00  0.1432225E+01 -0.1570782E+01
  0.9948377E+00  0.4854127E+00 -0.1570759E+01
  0.1012291E+01  0.1030020E+01 -0.1570816E+01
  0.1029744E+01  0.4348719E+00 -0.1570768E+01
  0.1047198E+01  0.1479449E+01 -0.1570782E+01
  0.1064651E+01  0.1195564E+01 -0.1570790E+01
  0.1082104E+01  0.1072345E+01 -0.1570747E+01
  0.1099558E+01  0.1177158E+01 -0.1570828E+01
  0.1117011E+01  0.3606491E+00 -0.1570740E+01
  0.1134464E+01  0.4164650E+00 -0.1570745E+01
  0.1151917E+01  0.8334780E+00 -0.1570672E+01
  0.1169371E+01  0.3287762E+00 -0.1570709E+01
  0.1186824E+01  0.3912321E+00 -0.1570711E+01
  0.1204277E+01  0.2196317E+00 -0.1570944E+01
  0.1221731E+01  0.6066923E+00 -0.1570714E+01
  0.1239184E+01  0.1551567E+01 -0.1570814E+01
  0.1256637E+01  0.7051329E-01 -0.1570566E+01
  0.1274090E+01  0.1177011E+01 -0.1570738E+01
  0.1291544E+01  0.8090113E+00 -0.1570776E+01
  0.1308997E+01  0.2687982E+00 -0.1570711E+01
  0.1326450E+01  0.5974656E+00 -0.1570932E+01
  0.1343904E+01  0.1909117E+00 -0.1570924E+01
  0.1361357E+01  0.7564214E+00 -0.1570785E+01
  0.1378810E+01  0.7098734E+00 -0.1570810E+01
  0.1396263E+01  0.6413136E+00 -0.1570773E+01
  0.1413717E+01  0.4056315E+00 -0.1570759E+01
  0.1431170E+01  0.1477107E+00  0.1570440E+01
  0.1448623E+01  0.1540269E+00  0.1571076E+01
  0.1466077E+01  0.4017380E-01 -0.1570980E+01
  0.1483530E+01  0.7182842E-01 -0.1570800E+01
  0.1500983E+01  0.1092295E+00  0.1570281E+01
  0.1518437E+01  0.2554804E-01  0.1571720E+01
  0.1535890E+01  0.1065065E+00  0.1570931E+01
  0.1553343E+01  0.1968670E+00 -0.1570766E+01
  0.1570796E+01  0.5818101E-04  0.1970666E+01
  0.1588250E+01  0.1964679E+00  0.1570568E+01
  0.1605703E+01  0.1058616E+00 -0.1571022E+01
  0.1623156E+01  0.2508030E-01 -0.1571167E+01
  0.1640610E+01  0.1088201E+00 -0.1570562E+01
  0.1658063E+01  0.7232471E-01  0.1570282E+01
  0.1675516E+01  0.3982352E-01  0.1570287E+01
  0.1692969E+01  0.1545961E+00 -0.1570818E+01
  0.1710423E+01  0.1476274E+00 -0.1570404E+01
  0.1727876E+01  0.4055673E+00  0.1570725E+01
  0.1745329E+01  0.6419528E+00  0.1570746E+01
  0.1762783E+01  0.7100009E+00  0.1570785E+01
  0.1780236E+01  0.7565966E+00  0.1570820E+01
  0.1797689E+01  0.1907291E+00  0.1570704E+01
  0.1815143E+01  0.5978796E+00  0.1570963E+01
  0.1832596E+01  0.2686004E+00  0.1570800E+01
  0.1850049E+01  0.8089611E+00  0.1570809E+01
  0.1867502E+01  0.1177247E+01  0.1570797E+01
  0.1884956E+01  0.7068657E-01  0.1570324E+01
  0.1902409E+01  0.1551720E+01  0.1570819E+01
  0.1919862E+01  0.6074271E+00  0.1570712E+01
  0.1937316E+01  0.2194286E+00  0.1571155E+01
  0.1954769E+01  0.3912885E+00  0.1570720E+01
  0.1972222E+01  0.3275175E+00  0.1570616E+01
  0.1989675E+01  0.8316154E+00  0.1570730E+01
  0.2007129E+01  0.4160545E+00  0.1570725E+01
  0.2024582E+01  0.3599155E+00  0.1570747E+01
  0.2042035E+01  0.1177119E+01  0.1570771E+01
  0.2059489E+01  0.1072090E+01  0.1570758E+01
  0.2076942E+01  0.1195198E+01  0.1570757E+01
  0.2094395E+01  0.1478882E+01  0.1570757E+01
  0.2111848E+01  0.4346474E+00  0.1570844E+01
  0.2129302E+01  0.1028836E+01  0.1570798E+01
  0.2146755E+01  0.4853351E+00  0.1570868E+01
  0.2164208E+01  0.1433290E+01  0.1570773E+01
  0.2181662E+01  0.2434387E+01  0.1570818E+01
  0.2199115E+01  0.1348220E+00  0.1571123E+01
  0.2216568E+01  0.2753102E+01  0.1570789E+01
  0.2234021E+01  0.1260397E+01  0.1570788E+01
  0.2251475E+01  0.4437453E+00  0.1570703E+01
  0.2268928E+01  0.8534534E+00  0.1570799E+01
  0.2286381E+01  0.5506738E+00  0.1570803E+01
  0.2303835E+01  0.1543687E+01  0.1570807E+01
  0.2321288E+01  0.9462076E+00  0.1570811E+01
  0.2338741E+01  0.8336477E+00  0.1570763E+01
  0.2356194E+01  0.1833610E+01  0.1570784E+01
  0.2373648E+01  0.1398722E+01  0.1570802E+01
  0.2391101E+01  0.1565038E+01  0.1570749E+01
  0.2408554E+01  0.2057211E+01  0.1570788E+01
  0.2426008E+01  0.6356363E+00  0.1570749E+01
  0.2443461E+01  0.1359491E+01  0.1570754E+01
  0.2460914E+01  0.6543874E+00  0.1570740E+01
  0.2478368E+01  0.1915850E+01  0.1570754E+01
  0.2495821E+01  0.3454457E+01  0.1570792E+01
  0.2513274E+01  0.1853679E+00  0.1570349E+01
  0.2530727E+01  0.3686302E+01  0.1570781E+01
  0.2548181E+01  0.1792282E+01  0.1570784E+01
  0.2565634E+01  0.6244171E+00  0.1570721E+01
  0.2583087E+01  0.1231376E+01  0.1570723E+01
  0.2600541E+01  0.7200952E+00  0.1570708E+01
  0.2617994E+01  0.2103984E+01  0.1570780E+01
  0.2635447E+01  0.1382816E+01  0.1570801E+01
  0.2652900E+01  0.1225813E+01  0.1570819E+01
  0.2670354E+01  0.2309401E+01  0.1570805E+01
  0.2687807E+01  0.1586360E+01  0.1570785E+01
  0.2705260E+01  0.1780519E+01  0.1570788E+01
  0.2722714E+01  0.2433315E+01  0.1570779E+01
  0.2740167E+01  0.7769476E+00  0.1570752E+01
  0.2757620E+01  0.1556234E+01  0.1570800E+01
  0.2775074E+01  0.7586704E+00  0.1570687E+01
  0.2792527E+01  0.2210617E+01  0.1570781E+01
  0.2809980E+01  0.4138539E+01  0.1570786E+01
  0.2827433E+01  0.2180973E+00  0.1570560E+01
  0.2844887E+01  0.4260085E+01  0.1570781E+01
  0.2862340E+01  0.2144688E+01  0.1570820E+01
  0.2879793E+01  0.7440938E+00  0.1570778E+01
  0.2897247E+01  0.1488880E+01  0.1570751E+01
  0.2914700E+01  0.8212956E+00  0.1570669E+01
  0.2932153E+01  0.2457515E+01  0.1570787E+01
  0.2949607E+01  0.1684940E+01  0.1570778E+01
  0.2967060E+01  0.1496884E+01  0.1570794E+01
  0.2984513E+01  0.2560289E+01  0.1570782E+01
  0.3001966E+01  0.1620837E+01  0.1570788E+01
  0.3019420E+01  0.1820652E+01  0.1570801E+01
  0.3036873E+01  0.2570898E+01  0.1570809E+01
  0.3054326E+01  0.8405794E+00  0.1570792E+01
  0.3071780E+01  0.1600769E+01  0.1570772E+01
  0.3089233E+01  0.7908583E+00  0.1570861E+01
  0.3106686E+01  0.2290236E+01  0.1570809E+01
  0.3124139E+01  0.4412888E+01  0.1570780E+01
  0.3141593E+01  0.2293738E+00  0.1571007E+01
Zone t="Motion of body    1 at frequency  0.1500 rad/s",I=   181,F=POINT
  0.0000000E+00  0.3186705E+01 -0.1570783E+01
  0.1745329E-01  0.3225035E+01 -0.1570794E+01
  0.3490658E-01  0.3216073E+01 -0.1570791E+01
  0.5235988E-01  0.3424934E+01 -0.1570809E+01
  0.6981317E-01  0.3165324E+01 -0.1570798E+01
  0.8726647E-01  0.3673042E+01 -0.1570789E+01
  0.1047198E+00  0.3068035E+01 -0.1570809E+01
  0.1221731E+00  0.3266680E+01 -0.1570811E+01
  0.1396263E+00  0.3076133E+01 -0.1570783E+01
  0.1570796E+00  0.2957906E+01 -0.1570823E+01
  0.1745329E+00  0.3067246E+01 -0.1570810E+01
  0.1919862E+00  0.3225918E+01 -0.1570803E+01
  0.2094395E+00  0.3030920E+01 -0.1570799E+01
  0.2268928E+00  0.3594321E+01 -0.1570787E+01
  0.2443461E+00  0.3088623E+01 -0.1570806E+01
  0.2617994E+00  0.3322139E+01 -0.1570784E+01
  0.2792527E+00  0.3089491E+01 -0.1570782E+01
  0.2967060E+00  0.3098732E+01 -0.1570821E+01
  0.3141593E+00  0.3031191E+01 -0.1570791E+01
  0.3316126E+00  0.3036696E+01 -0.1570776E+01
  0.3490659E+00  0.3027755E+01 -0.1570791E+01
  0.3665192E+00  0.3193432E+01 -0.1570786E+01
  0.3839725E+00  0.2932236E+01 -0.1570814E+01
  0.4014257E+00  0.3393384E+01 -0.1570816E+01
  0.4188790E+00  0.2805613E+01 -0.1570789E+01
  0.4363323E+00  0.2988428E+01 -0.1570795E+01
  0.4537856E+00  0.2785590E+01 -0.1570798E+01
  0.4712389E+00  0.2668159E+01 -0.1570784E+01
  0.4886922E+00  0.2755390E+01 -0.1570786E+01
  0.5061455E+00  0.2869107E+01 -0.1570792E+01
  0.5235988E+00  0.2696297E+01 -0.1570814E+01
  0.5410521E+00  0.3162483E+01 -0.1570809E+01
  0.5585054E+00  0.2709185E+01 -0.1570814E+01
  0.5759587E+00  0.2893995E+01 -0.1570798E+01
  0.5934120E+00  0.2661597E+01 -0.1570792E+01
  0.6108653E+00  0.2667857E+01 -0.1570790E+01
  0.6283185E+00  0.2578026E+01 -0.1570786E+01
  0.6457719E+00  0.2550888E+01 -0.1570820E+01
  0.6632251E+00  0.2542305E+01 -0.1570800E+01
  0.6806784E+00  0.2648502E+01 -0.1570815E+01
  0.6981317E+00  0.2411678E+01 -0.1570783E+01
  0.7155850E+00  0.2780838E+01 -0.1570812E+01
  0.7330383E+00  0.2268559E+01 -0.1570835E+01
  0.7504916E+00  0.2431329E+01 -0.1570788E+01
  0.7679449E+00  0.2223294E+01 -0.1570826E+01
  0.7853982E+00  0.2117036E+01 -0.1570808E+01
  0.8028514E+00  0.2175977E+01 -0.1570792E+01
  0.8203048E+00  0.2246132E+01 -0.1570801E+01
  0.8377581E+00  0.2098191E+01 -0.1570801E+01
  0.8552114E+00  0.2422528E+01 -0.1570767E+01
  0.8726646E+00  0.2065006E+01 -0.1570791E+01
  0.8901180E+00  0.2181753E+01 -0.1570796E+01
  0.9075713E+00  0.1971954E+01 -0.1570819E+01
  0.9250245E+00  0.1976155E+01 -0.1570809E+01
  0.9424778E+00  0.1873128E+01 -0.1570810E+01
  0.9599311E+00  0.1815446E+01 -0.1570798E+01
  0.9773844E+00  0.1808611E+01 -0.1570779E+01
  0.9948377E+00  0.1844851E+01 -0.1570847E+01
  0.1012291E+01  0.1655921E+01 -0.1570833E+01
  0.1029744E+01  0.1896371E+01 -0.1570847E+01
  0.1047198E+01  0.1509211E+01 -0.1570804E+01
  0.1064651E+01  0.1618276E+01 -0.1570786E+01
  0.1082104E+01  0.1440888E+01 -0.1570820E+01
  0.1099558E+01  0.1359666E+01 -0.1570819E+01
  0.1117011E+01  0.1382449E+01 -0.1570775E+01
  0.1134464E+01  0.1376453E+01 -0.1570772E+01
  0.1151917E+01  0.1294614E+01 -0.1570801E+01
  0.1169371E+01  0.1444633E+01 -0.1570800E+01
  0.1186824E+01  0.1218576E+01 -0.1570783E+01
  0.1204277E+01  0.1256747E+01 -0.1570832E+01
  0.1221731E+01  0.1090102E+01 -0.1570732E+01
  0.1239184E+01  0.1091228E+01 -0.1570815E+01
  0.1256637E+01  0.9847732E+00 -0.1570776E+01
  0.1274090E+01  0.9019882E+00 -0.1570768E+01
  0.1291544E+01  0.8977141E+00 -0.1570837E+01
  0.1308997E+01  0.8602729E+00 -0.1570828E+01
  0.1326450E+01  0.7372391E+00 -0.1570785E+01
  0.1343904E+01  0.8257005E+00 -0.1570786E+01
  0.1361357E+01  0.6019929E+00 -0.1570795E+01
  0.1378810E+01  0.6430523E+00 -0.1570772E+01
  0.1396263E+01  0.5195163E+00 -0.1570796E+01
  0.1413717E+01  0.4686288E+00 -0.1570768E+01
  0.1431170E+01  0.4536187E+00 -0.1570916E+01
  0.1448623E+01  0.3877203E+00 -0.1570740E+01
  0.1466077E+01  0.3640780E+00 -0.1570918E+01
  0.1483530E+01  0.3253400E+00 -0.1570739E+01
  0.1500983E+01  0.2530212E+00 -0.1570996E+01
  0.1518437E+01  0.2084669E+00 -0.1570908E+01
  0.1535890E+01  0.1009918E+00 -0.1571037E+01
  0.1553343E+01  0.9932913E-01 -0.1571303E+01
  0.1570796E+01  0.1508958E-03 -0.2061046E+01
  0.1588250E+01  0.9928536E-01  0.1571397E+01
  0.1605703E+01  0.1011003E+00  0.1570752E+01
  0.1623156E+01  0.2084374E+00  0.1570478E+01
  0.1640610E+01  0.2528638E+00  0.1570802E+01
  0.1658063E+01  0.3245184E+00  0.1570710E+01
  0.1675516E+01  0.3639250E+00  0.1570962E+01
  0.1692969E+01  0.3852683E+00  0.1570624E+01
  0.1710423E+01  0.4538947E+00  0.1570904E+01
  0.1727876E+01  0.4686565E+00  0.1570850E+01
  0.1745329E+01  0.5198622E+00  0.1570787E+01
  0.1762783E+01  0.6431209E+00  0.1570813E+01
  0.1780236E+01  0.6019298E+00  0.1570738E+01
  0.1797689E+01  0.8257638E+00  0.1570838E+01
  0.1815143E+01  0.7373624E+00  0.1570845E+01
  0.1832596E+01  0.8600448E+00  0.1570805E+01
  0.1850049E+01  0.8974746E+00  0.1570859E+01
  0.1867502E+01  0.9021074E+00  0.1570833E+01
  0.1884956E+01  0.9847553E+00  0.1570787E+01
  0.1902409E+01  0.1091187E+01  0.1570781E+01
  0.1919862E+01  0.1090130E+01  0.1570792E+01
  0.1937316E+01  0.1256758E+01  0.1570802E+01
  0.1954769E+01  0.1218784E+01  0.1570817E+01
  0.1972222E+01  0.1444261E+01  0.1570785E+01
  0.1989675E+01  0.1293818E+01  0.1570855E+01
  0.2007129E+01  0.1384642E+01  0.1570795E+01
  0.2024582E+01  0.1382015E+01  0.1570799E+01
  0.2042035E+01  0.1359570E+01  0.1570827E+01
  0.2059489E+01  0.1441582E+01  0.1570819E+01
  0.2076942E+01  0.1618116E+01  0.1570771E+01
  0.2094395E+01  0.1509713E+01  0.1570801E+01
  0.2111848E+01  0.1895501E+01  0.1570836E+01
  0.2129302E+01  0.1655362E+01  0.1570818E+01
  0.2146755E+01  0.1844667E+01  0.1570799E+01
  0.2164208E+01  0.1808795E+01  0.1570801E+01
  0.2181662E+01  0.1815483E+01  0.1570843E+01
  0.2199115E+01  0.1872910E+01  0.1570831E+01
  0.2216568E+01  0.1976154E+01  0.1570769E+01
  0.2234021E+01  0.1972931E+01  0.1570805E+01
  0.2251475E+01  0.2181447E+01  0.1570813E+01
  0.2268928E+01  0.2065190E+01  0.1570802E+01
  0.2286381E+01  0.2422068E+01  0.1570799E+01
  0.2303835E+01  0.2098407E+01  0.1570821E+01
  0.2321288E+01  0.2245845E+01  0.1570795E+01
  0.2338741E+01  0.2174985E+01  0.1570818E+01
  0.2356194E+01  0.2117818E+01  0.1570836E+01
  0.2373648E+01  0.2221987E+01  0.1570805E+01
  0.2391101E+01  0.2431313E+01  0.1570819E+01
  0.2408554E+01  0.2269057E+01  0.1570808E+01
  0.2426008E+01  0.2780589E+01  0.1570822E+01
  0.2443461E+01  0.2411764E+01  0.1570807E+01
  0.2460914E+01  0.2648012E+01  0.1570811E+01
  0.2478368E+01  0.2544019E+01  0.1570805E+01
  0.2495821E+01  0.2551057E+01  0.1570821E+01
  0.2513274E+01  0.2584533E+01  0.1570797E+01
  0.2530727E+01  0.2668164E+01  0.1570802E+01
  0.2548181E+01  0.2662013E+01  0.1570813E+01
  0.2565634E+01  0.2893708E+01  0.1570799E+01
  0.2583087E+01  0.2709166E+01  0.1570794E+01
  0.2600541E+01  0.3161623E+01  0.1570818E+01
  0.2617994E+01  0.2697253E+01  0.1570829E+01
  0.2635447E+01  0.2869206E+01  0.1570786E+01
  0.2652900E+01  0.2755764E+01  0.1570804E+01
  0.2670354E+01  0.2667473E+01  0.1570806E+01
  0.2687807E+01  0.2785516E+01  0.1570806E+01
  0.2705260E+01  0.3006336E+01  0.1570801E+01
  0.2722714E+01  0.2805620E+01  0.1570786E+01
  0.2740167E+01  0.3393509E+01  0.1570820E+01
  0.2757620E+01  0.2932472E+01  0.1570806E+01
  0.2775074E+01  0.3193447E+01  0.1570801E+01
  0.2792527E+01  0.3027017E+01  0.1570794E+01
  0.2809980E+01  0.3036973E+01  0.1570801E+01
  0.2827433E+01  0.3031247E+01  0.1570795E+01
  0.2844887E+01  0.3098541E+01  0.1570832E+01
  0.2862340E+01  0.3090219E+01  0.1570788E+01
  0.2879793E+01  0.3322326E+01  0.1570807E+01
  0.2897247E+01  0.3088565E+01  0.1570810E+01
  0.2914700E+01  0.3594928E+01  0.1570814E+01
  0.2932153E+01  0.3029896E+01  0.1570818E+01
  0.2949607E+01  0.3225355E+01  0.1570810E+01
  0.2967060E+01  0.3067414E+01  0.1570810E+01
  0.2984513E+01  0.2957905E+01  0.1570830E+01
  0.3001966E+01  0.3077526E+01  0.1570813E+01
  0.3019420E+01  0.3265465E+01  0.1570811E+01
  0.3036873E+01  0.3067538E+01  0.1570805E+01
  0.3054326E+01  0.3673746E+01  0.1570802E+01
  0.3071780E+01  0.3165210E+01  0.1570803E+01
  0.3089233E+01  0.3425148E+01  0.1570816E+01
  0.3106686E+01  0.3216040E+01  0.1570799E+01
  0.3124139E+01  0.3225214E+01  0.1570813E+01
  0.3141593E+01  0.3186480E+01  0.1570815E+01
Zone t="Motion of body    1 at frequency  0.2000 rad/s",I=   181,F=POINT
  0.0000000E+00  0.5743279E+01 -0.1570765E+01
  0.1745329E-01  0.5512946E+01 -0.1570772E+01
  0.3490658E-01  0.5556118E+01 -0.1570784E+01
  0.5235988E-01  0.5605513E+01 -0.1570778E+01
  0.6981317E-01  0.5539965E+01 -0.1570780E+01
  0.8726647E-01  0.5561143E+01 -0.1570767E+01
  0.1047198E+00  0.5345468E+01 -0.1570775E+01
  0.1221731E+00  0.5519599E+01 -0.1570776E+01
  0.1396263E+00  0.5504379E+01 -0.1570769E+01
  0.1570796E+00  0.5507226E+01 -0.1570770E+01
  0.1745329E+00  0.5476552E+01 -0.1570776E+01
  0.1919862E+00  0.5463309E+01 -0.1570769E+01
  0.2094395E+00  0.5263684E+01 -0.1570772E+01
  0.2268928E+00  0.5436279E+01 -0.1570769E+01
  0.2443461E+00  0.5398536E+01 -0.1570778E+01
  0.2617994E+00  0.5421517E+01 -0.1570779E+01
  0.2792527E+00  0.5340771E+01 -0.1570773E+01
  0.2967060E+00  0.5277588E+01 -0.1570783E+01
  0.3141593E+00  0.5463037E+01 -0.1570759E+01
  0.3316126E+00  0.5210247E+01 -0.1570793E+01
  0.3490659E+00  0.5228840E+01 -0.1570768E+01
  0.3665192E+00  0.5241641E+01 -0.1570770E+01
  0.3839725E+00  0.5139417E+01 -0.1570778E+01
  0.4014257E+00  0.5142554E+01 -0.1570751E+01
  0.4188790E+00  0.4922707E+01 -0.1570781E+01
  0.4363323E+00  0.5036795E+01 -0.1570759E+01
  0.4537856E+00  0.4994141E+01 -0.1570787E+01
  0.4712389E+00  0.4967859E+01 -0.1570775E+01
  0.4886922E+00  0.4913054E+01 -0.1570794E+01
  0.5061455E+00  0.4871993E+01 -0.1570770E+01
  0.5235988E+00  0.4651868E+01 -0.1570781E+01
  0.5410521E+00  0.4779004E+01 -0.1570771E+01
  0.5585054E+00  0.4728502E+01 -0.1570771E+01
  0.5759587E+00  0.4706621E+01 -0.1570776E+01
  0.5934120E+00  0.4601874E+01 -0.1570775E+01
  0.6108653E+00  0.4522024E+01 -0.1570767E+01
  0.6283185E+00  0.4646674E+01 -0.1570771E+01
  0.6457719E+00  0.4394810E+01 -0.1570772E+01
  0.6632251E+00  0.4388102E+01 -0.1570776E+01
  0.6806784E+00  0.4363784E+01 -0.1570783E+01
  0.6981317E+00  0.4235327E+01 -0.1570779E+01
  0.7155850E+00  0.4219412E+01 -0.1570775E+01
  0.7330383E+00  0.4000153E+01 -0.1570792E+01
  0.7504916E+00  0.4058809E+01 -0.1570776E+01
  0.7679449E+00  0.3993102E+01 -0.1570773E+01
  0.7853982E+00  0.3942571E+01 -0.1570761E+01
  0.8028514E+00  0.3868406E+01 -0.1570775E+01
  0.8203048E+00  0.3803280E+01 -0.1570764E+01
  0.8377581E+00  0.3594535E+01 -0.1570753E+01
  0.8552114E+00  0.3654365E+01 -0.1570787E+01
  0.8726646E+00  0.3595249E+01 -0.1570780E+01
  0.8901180E+00  0.3530567E+01 -0.1570780E+01
  0.9075713E+00  0.3412764E+01 -0.1570775E+01
  0.9250245E+00  0.3326151E+01 -0.1570764E+01
  0.9424778E+00  0.3376109E+01 -0.1570787E+01
  0.9599311E+00  0.3152257E+01 -0.1570768E+01
  0.9773844E+00  0.3118949E+01 -0.1570786E+01
  0.9948377E+00  0.3059332E+01 -0.1570776E+01
  0.1012291E+01  0.2917315E+01 -0.1570783E+01
  0.1029744E+01  0.2883776E+01 -0.1570770E+01
  0.1047198E+01  0.2692183E+01 -0.1570775E+01
  0.1064651E+01  0.2684486E+01 -0.1570774E+01
  0.1082104E+01  0.2601943E+01 -0.1570781E+01
  0.1099558E+01  0.2531418E+01 -0.1570781E+01
  0.1117011E+01  0.2446668E+01 -0.1570769E+01
  0.1134464E+01  0.2362365E+01 -0.1570771E+01
  0.1151917E+01  0.2182588E+01 -0.1570747E+01
  0.1169371E+01  0.2171856E+01 -0.1570718E+01
  0.1186824E+01  0.2110637E+01 -0.1570797E+01
  0.1204277E+01  0.2009588E+01 -0.1570792E+01
  0.1221731E+01  0.1891593E+01 -0.1570785E+01
  0.1239184E+01  0.1806273E+01 -0.1570784E+01
  0.1256637E+01  0.1775029E+01 -0.1570748E+01
  0.1274090E+01  0.1601413E+01 -0.1570777E+01
  0.1291544E+01  0.1544334E+01 -0.1570744E+01
  0.1308997E+01  0.1455114E+01 -0.1570772E+01
  0.1326450E+01  0.1313322E+01 -0.1570742E+01
  0.1343904E+01  0.1265685E+01 -0.1570748E+01
  0.1361357E+01  0.1122626E+01 -0.1570750E+01
  0.1378810E+01  0.1048040E+01 -0.1570740E+01
  0.1396263E+01  0.9572181E+00 -0.1570822E+01
  0.1413717E+01  0.8721905E+00 -0.1570863E+01
  0.1431170E+01  0.7823718E+00 -0.1570776E+01
  0.1448623E+01  0.6915216E+00 -0.1570737E+01
  0.1466077E+01  0.5570239E+00 -0.1570768E+01
  0.1483530E+01  0.4763018E+00 -0.1570787E+01
  0.1500983E+01  0.4191734E+00 -0.1570960E+01