VARIABLES="w (rad/s)"
"A   1   1" "B   1   1"
"A   1   2" "B   1   2"
"A   1   3" "B   1   3"
"A   1   4" "B   1   4"
"A   1   5" "B   1   5"
"A   1   6" "B   1   6"
Zone t="Motion of body    1 in DoF   1",I=    80,F=POINT
  0.5000000E-01  0.5807402E+06  0.4003505E-03 -0.9918212E-03  0.5201173E-11  0.3189087E-01  0.8808089E-05 -0.1670837E-01  0.6366463E-10  0.1778937E+07  0.1257757E-02  0.7400512E-02  0.2671641E-11
  0.9999999E-01  0.5842499E+06  0.4902121E-01 -0.5607605E-02  0.7639755E-10  0.3707886E-01  0.3483507E-04  0.2044678E-01 -0.7858034E-09  0.1787743E+07  0.1513163E+00 -0.1907349E-02  0.4874892E-09
  0.1500000E+00  0.5900976E+06  0.8388737E+00  0.3204346E-02 -0.4016329E-08 -0.2034506E-02  0.7907161E-04 -0.4882813E-02 -0.3073364E-07  0.1812478E+07  0.2599665E+01  0.5696615E-02 -0.7217750E-08
  0.2000000E+00  0.5926651E+06  0.6193057E+01  0.1831055E-02 -0.6798655E-07  0.7171631E-02  0.2844259E-04 -0.8392335E-03  0.2607703E-07  0.1820625E+07  0.1924873E+02 -0.3738404E-02  0.1862645E-07
  0.2500000E+00  0.5964614E+06  0.2904802E+02  0.6561279E-02 -0.1806766E-06  0.3308105E-01  0.7526726E-03 -0.2569580E-01 -0.2980232E-06  0.1835658E+07  0.9062858E+02 -0.6958007E-02  0.3315508E-06
  0.3000000E+00  0.6016234E+06  0.1019760E+03 -0.1012166E-01  0.3725290E-07 -0.9816487E-01 -0.2053380E-02  0.2237956E-02  0.2473593E-05  0.1857861E+07  0.3198419E+03  0.8138021E-03  0.1430511E-05
  0.3500000E+00  0.6073909E+06  0.2928043E+03 -0.8283343E-03 -0.2473593E-05 -0.4202707E-01 -0.4852533E-02 -0.8370536E-02  0.1668930E-05  0.1880164E+07  0.9234478E+03 -0.2354213E-02  0.1788139E-06
  0.4000001E+00  0.6144369E+06  0.7254504E+03  0.7133482E-02  0.7152557E-05 -0.3805541E+00 -0.5124712E-01  0.4119872E-02 -0.3600121E-04  0.1905201E+07  0.2301400E+04 -0.7247923E-02 -0.6079674E-05
  0.4499998E+00  0.6235122E+06  0.1605750E+04  0.8578833E-02 -0.2372265E-04  0.2699111E-01  0.3108501E-02  0.1593696E-01 -0.8106232E-05  0.1942634E+07  0.5134621E+04  0.2712675E-03 -0.8344650E-05
  0.5000001E+00  0.6334804E+06  0.3247559E+04  0.8544921E-03 -0.3957748E-04 -0.1096191E+00 -0.3911972E-01  0.5493164E-02  0.1907349E-05  0.1978496E+07  0.1046211E+05 -0.1208496E-01 -0.3337860E-05
  0.5500002E+00  0.6461417E+06  0.6108917E+04 -0.1070889E-01  0.1525879E-04  0.1712313E+00  0.4228210E-01  0.8766865E-02 -0.4577637E-04  0.2029264E+07  0.1986768E+05 -0.6325460E-02 -0.1678467E-03
  0.5999997E+00  0.6603134E+06  0.1081433E+05 -0.2034506E-03 -0.8487701E-04  0.7598880E-01  0.6390381E-01  0.2126059E-01  0.1239777E-03  0.2085502E+07  0.3552675E+05 -0.1180013E-01 -0.1850128E-03
  0.6499999E+00  0.6755236E+06  0.1816746E+05 -0.1361554E-02  0.1916885E-03  0.7474460E-01  0.4459381E-01 -0.1530574E-01 -0.6484985E-04  0.2143245E+07  0.6028553E+05 -0.3662110E-02 -0.2517700E-03
  0.6999999E+00  0.6925381E+06  0.2918338E+05 -0.1573835E-01 -0.5912781E-04  0.5004883E-01  0.3704071E-01 -0.1447405E-01 -0.7095337E-03  0.2214453E+07  0.9802622E+05  0.1220703E-02  0.3128052E-03
  0.7499999E+00  0.7095868E+06  0.4504105E+05  0.6184897E-02 -0.8392334E-04  0.8463543E-02  0.2316284E-01  0.3173828E-02 -0.5493164E-03  0.2285969E+07  0.1531894E+06  0.2441406E-02 -0.4043579E-03
  0.8000000E+00  0.7254912E+06  0.6699305E+05  0.7781982E-02  0.4196167E-04  0.1434326E-01  0.2310181E-01 -0.2571106E-01  0.9765625E-03  0.2352586E+07  0.2307116E+06  0.3356934E-02 -0.7629395E-04
  0.8500000E+00  0.7397288E+06  0.9617611E+05 -0.2225988E-02  0.2059937E-03  0.5744486E-01  0.1498413E-01  0.5744486E-03  0.3051758E-04  0.2420139E+07  0.3359889E+06  0.1148897E-02 -0.7629395E-04
  0.8999999E+00  0.7500997E+06  0.1336033E+06  0.6442601E-02 -0.9155273E-03  0.2658421E-01  0.1373291E-01 -0.3526476E-02  0.1953125E-02  0.2476981E+07  0.4738351E+06  0.5560982E-02 -0.7019043E-03
  0.9499999E+00  0.7543734E+06  0.1796779E+06  0.4111843E-02 -0.9613037E-03  0.6553249E-02 -0.6896973E-02  0.2107319E-01  0.5859375E-02  0.2512688E+07  0.6471744E+06  0.9508636E-02 -0.1129150E-02
  0.1000000E+01  0.7497408E+06  0.2337226E+06 -0.2685547E-02 -0.2563477E-02 -0.2160644E-01 -0.1281738E-01  0.4040527E-01 -0.1800537E-02  0.2514098E+07  0.8548588E+06  0.1220703E-02  0.4394531E-02
  0.1050000E+01  0.7359837E+06  0.2936710E+06  0.4824684E-02 -0.1464844E-02  0.1336960E-01 -0.1873779E-01  0.1778739E-01  0.1007080E-01  0.2484575E+07  0.1092169E+07  0.7091703E-02  0.4272461E-02
  0.1100000E+01  0.7120722E+06  0.3567729E+06 -0.3218218E-02  0.2502441E-02 -0.4106001E-02 -0.4357910E-01 -0.8766868E-02 -0.1367188E-01  0.2417034E+07  0.1350234E+07 -0.2774325E-02 -0.1586914E-02
  0.1150000E+01  0.6775549E+06  0.4191260E+06 -0.4882813E-02  0.2532959E-02 -0.9659478E-02 -0.7690430E-02  0.5307405E-03 -0.2807617E-02  0.2304872E+07  0.1614329E+07 -0.3184443E-02 -0.6103516E-03
  0.1200000E+01  0.6351978E+06  0.4763199E+06 -0.9155274E-03  0.5554199E-02 -0.2288818E-01 -0.1153564E-01  0.4119874E-02  0.1043701E-01  0.2158270E+07  0.1868208E+07  0.9155274E-03  0.5859375E-02
  0.1250000E+01  0.5872576E+06  0.5246956E+06 -0.1660156E-02  0.8422852E-02 -0.1259766E-01 -0.1593018E-01  0.2832031E-02  0.9582520E-02  0.1984904E+07  0.2097212E+07 -0.1660156E-02  0.3173828E-02
  0.1300000E+01  0.5364619E+06  0.5617961E+06 -0.1267653E-02  0.1544189E-01 -0.5634015E-03 -0.1770020E-02 -0.1643254E-01  0.1416016E-01  0.1792108E+07  0.2288476E+07 -0.5634015E-02  0.3662109E-02
  0.1350000E+01  0.4868776E+06  0.5867527E+06 -0.1989294E-02  0.4455566E-02  0.1844618E-01  0.4150391E-02 -0.8499712E-02  0.2044678E-01  0.1596554E+07  0.2436008E+07 -0.1627604E-02 -0.4394531E-02
  0.1400000E+01  0.4398878E+06  0.5992755E+06 -0.8414133E-02  0.4150391E-02  0.3313337E-02 -0.1098633E-01  0.8239747E-02  0.2990723E-01  0.1404418E+07  0.2536749E+07 -0.9591240E-03 -0.9765625E-03
  0.1450000E+01  0.3978108E+06  0.6009775E+06 -0.3662110E-02 -0.8972168E-02 -0.1170191E-01 -0.7995605E-02  0.2104661E-03  0.2804565E-01  0.1226024E+07  0.2594804E+07  0.1683729E-03 -0.4882812E-03
  0.1500000E+01  0.3610313E+06  0.5932947E+06  0.1708985E-02  0.3662109E-03  0.1847331E-01  0.4699707E-02  0.1627604E-03  0.1953125E-01  0.1063396E+07  0.2612734E+07 -0.3255209E-03  0.6347656E-02
  0.1550000E+01  0.3304112E+06  0.5790784E+06  0.2559539E-03  0.4882812E-02 -0.1968876E-02  0.1110840E-01 -0.5119078E-02 -0.8026123E-02  0.9215195E+06  0.2599611E+07  0.3150202E-02 -0.4882812E-03
  0.1600000E+01  0.3051655E+06  0.5591583E+06 -0.2861023E-02 -0.4028320E-02  0.3738404E-02 -0.4241943E-02  0.6294250E-02 -0.9460449E-03  0.7987362E+06  0.2559468E+07 -0.2517700E-02  0.5615234E-02
  0.1650000E+01  0.2852348E+06  0.5355727E+06 -0.1257694E-02  0.2075195E-02 -0.9025807E-02 -0.2014160E-02  0.9173770E-02  0.4888916E-01  0.6961637E+06  0.2500161E+07  0.2219461E-03  0.7568359E-02
  0.1700000E+01  0.2699128E+06  0.5102225E+06  0.1795152E-02  0.1342773E-02 -0.4739201E-02  0.4913330E-02  0.7467832E-02  0.5256653E-01  0.6112593E+06  0.2427651E+07  0.9334790E-03  0.3173828E-02
  0.1750000E+01  0.2582637E+06  0.4834520E+06 -0.1220703E-03 -0.6103516E-03  0.3578404E-01  0.2197266E-02 -0.4778181E-02 -0.1550293E-01  0.5412869E+06  0.2343754E+07 -0.2842495E-02 -0.3417969E-02
  0.1800000E+01  0.2501069E+06  0.4567669E+06  0.3403558E-02 -0.6103516E-03  0.5764432E-02 -0.5722046E-02 -0.6781685E-03  0.1182556E-01  0.4862627E+06  0.2254943E+07 -0.3390842E-03  0.5126953E-02
  0.1850000E+01  0.2445612E+06  0.4300763E+06  0.2156851E-02 -0.1342773E-02  0.4288957E-02 -0.9155273E-03  0.5740605E-02 -0.3921509E-02  0.4426913E+06  0.2161522E+07  0.2292943E-02 -0.2197266E-02
  0.1900000E+01  0.2413837E+06  0.4041097E+06 -0.2349051E-03 -0.1220703E-03  0.2255089E-01 -0.2441406E-02  0.1670436E-02  0.8621216E-03  0.4101549E+06  0.2067012E+07  0.8432489E-03  0.3173828E-02
  0.1950000E+01  0.2398578E+06  0.3801291E+06  0.7022957E-02  0.1159668E-02 -0.6009616E-02  0.1823425E-02  0.2191006E-02  0.1518250E-01  0.3855162E+06  0.1975505E+07  0.3776551E-02  0.4882812E-02
  0.2000000E+01  0.2395715E+06  0.3558679E+06  0.3147126E-04 -0.8544922E-03  0.2368164E-01  0.6866455E-03 -0.4211426E-02  0.2564621E-01  0.3671072E+06  0.1880956E+07  0.1192093E-02  0.3417969E-02
  0.2050000E+01  0.2405026E+06  0.3342588E+06 -0.2850789E-02  0.6286621E-02  0.3072600E-01  0.2479553E-03 -0.1786395E-02  0.9010315E-02  0.3554787E+06  0.1793251E+07 -0.1395621E-02 -0.2441406E-03
  0.2100000E+01  0.2421640E+06  0.3134821E+06  0.4130772E-02  0.1098633E-02 -0.1697358E-01  0.4539490E-03  0.1336961E-02  0.1283073E-01  0.3485180E+06  0.1705823E+07 -0.1387823E-02  0.2441406E-03
  0.2150000E+01  0.2444561E+06  0.2943838E+06 -0.2668514E-02  0.6103516E-03 -0.6586120E-02  0.5722046E-04  0.1987191E-02 -0.2589607E-01  0.3458054E+06  0.1623045E+07  0.4542151E-03 -0.1953125E-02
  0.2200000E+01  0.2474013E+06  0.2765341E+06  0.3232090E-02  0.7934570E-03  0.6991301E-02 -0.1354218E-03  0.1553623E-02  0.8897781E-02  0.3471503E+06  0.1544445E+07 -0.2316562E-02 -0.2075195E-02
  0.2250000E+01  0.2501286E+06  0.2605713E+06 -0.1074897E-02  0.1342773E-02  0.2072483E-01 -0.4005432E-03 -0.2061632E-02 -0.1974106E-01  0.3492253E+06  0.1471142E+07  0.7324219E-03 -0.2441406E-03
  0.2300000E+01  0.2533881E+06  0.2444906E+06 -0.9619673E-03 -0.1892090E-02  0.8810293E-02 -0.1308441E-02  0.1061481E-02  0.1535130E-01  0.3535568E+06  0.1397142E+07  0.1379925E-02  0.6103516E-03
  0.2350000E+01  0.2564237E+06  0.2307362E+06 -0.4090654E-03 -0.2624512E-02  0.3636137E-02 -0.1737595E-02  0.1090841E-02  0.1729488E-01  0.3588154E+06  0.1331460E+07 -0.7272274E-03  0.1831055E-02
  0.2400000E+01  0.2595868E+06  0.2176817E+06  0.1773834E-02  0.8544922E-03 -0.2461751E-01 -0.7410049E-03 -0.3102620E-02 -0.1726151E-03  0.3656719E+06  0.1268815E+07  0.6739299E-03  0.8544922E-03
  0.2450000E+01  0.2627742E+06  0.2051820E+06  0.3300882E-03 -0.1159668E-02 -0.1145966E-01 -0.9136200E-03  0.1096142E-02  0.2882385E-01  0.3731356E+06  0.1207804E+07  0.2366670E-02 -0.2807617E-02
  0.2500000E+01  0.2658408E+06  0.1937024E+06  0.1885986E-02 -0.2380371E-02  0.1542969E-01 -0.1062393E-02 -0.3515624E-02 -0.2785683E-02  0.3810608E+06  0.1151708E+07  0.4882812E-04 -0.2319336E-02
  0.2549999E+01  0.2687091E+06  0.1829632E+06  0.3273161E-02 -0.1831055E-03  0.1139323E-01 -0.2670288E-04  0.1005285E-02 -0.2408981E-02  0.3884997E+06  0.1100108E+07 -0.6821578E-03 -0.3540039E-02
  0.2600000E+01  0.2709983E+06  0.1725832E+06 -0.2347506E-03 -0.6103516E-03 -0.1408504E-02 -0.2566338E-02  0.1220703E-02  0.7772446E-03  0.3933396E+06  0.1051059E+07 -0.2817007E-02  0.2319336E-02
  0.2650001E+01  0.2726818E+06  0.1626903E+06 -0.1998037E-02  0.1220703E-02  0.2855984E-02  0.2078056E-02  0.1381928E-03  0.2976418E-02  0.3939883E+06  0.1004249E+07 -0.1381928E-03 -0.1220703E-03
  0.2700000E+01  0.2713102E+06  0.1525706E+06 -0.2882216E-02 -0.3051758E-03  0.1808449E-02  0.2254486E-02  0.1989294E-02  0.1143074E-01  0.3762848E+06  0.9614834E+06  0.4069011E-02 -0.1220703E-02
  0.2750000E+01  0.2610921E+06  0.2444902E+05  0.3750888E-02 -0.3051758E-03  0.8877842E-03 -0.1979828E-02  0.4882813E-03  0.1932144E-02  0.2531835E+06  0.2282806E+06 -0.2663353E-03  0.6103516E-04
  0.2800000E+01  0.2962400E+06  0.1250462E+06  0.3128052E-02  0.3021240E-02 -0.4045759E-01  0.3229141E-02 -0.8283343E-02 -0.2035141E-02  0.5112265E+06  0.7556781E+06  0.2441406E-02 -0.1220703E-02
  0.2849999E+01  0.2943311E+06  0.1246968E+06 -0.2446761E-02 -0.2746582E-03  0.5311131E-02 -0.4002571E-02  0.3426536E-02 -0.3070831E-03  0.4943995E+06  0.7743546E+06  0.4572284E-02 -0.1342773E-02
  0.2900000E+01  0.2955679E+06  0.1199226E+06 -0.2162539E-02  0.1922607E-02 -0.1178610E-02 -0.3051758E-03 -0.2525593E-02 -0.1567364E-02  0.4954020E+06  0.7541872E+06  0.2420360E-02  0.2441406E-03
  0.2949999E+01  0.2975668E+06  0.1148093E+06 -0.3413832E-03  0.1220703E-02  0.4800054E-02 -0.1373291E-03  0.1986229E-02 -0.4324913E-03  0.5010435E+06  0.7278336E+06  0.1965540E-03  0.7324219E-03
  0.3000000E+01  0.2996586E+06  0.1091827E+06 -0.1327515E-02  0.2136230E-03 -0.6673176E-02 -0.3323555E-03 -0.3417968E-02 -0.9946823E-02  0.5081043E+06  0.6973007E+06 -0.2543131E-03  0.1220703E-02
  0.3050000E+01  0.3021398E+06  0.1028034E+06 -0.2531458E-02  0.2746582E-03 -0.4642675E-02 -0.6554127E-03  0.5603228E-03 -0.4212856E-02  0.5166018E+06  0.6641283E+06  0.1370790E-02  0.0000000E+00
  0.3100000E+01  0.3045093E+06  0.9732266E+05  0.7777060E-03  0.1281738E-02  0.1000189E-01 -0.2472401E-03 -0.1811366E-02  0.1453400E-02  0.5251671E+06  0.6335558E+06 -0.1771988E-02 -0.8544922E-03
  0.3150000E+01  0.3065615E+06  0.9286419E+05  0.2194359E-02 -0.3051758E-03 -0.1968626E-01 -0.9465218E-04 -0.4572792E-02 -0.7478833E-02  0.5330641E+06  0.6064777E+06  0.6781684E-03  0.1098633E-02
  0.3199999E+01  0.3087340E+06  0.8871293E+05  0.1473427E-02 -0.2746582E-03 -0.2822877E-02  0.1908541E-03 -0.1449585E-02  0.3227592E-02  0.5410868E+06  0.5811944E+06  0.2737046E-02  0.4882812E-03
  0.3250000E+01  0.3107686E+06  0.8431992E+05  0.1122108E-02 -0.4577637E-03 -0.1434796E-01 -0.3667772E-03 -0.1577524E-02  0.1611710E-02  0.5492679E+06  0.5550640E+06  0.7887621E-03  0.1342773E-02
  0.3299999E+01  0.3128099E+06  0.8074297E+05 -0.6473427E-04 -0.3967285E-03 -0.1265093E-01 -0.3646612E-03 -0.2219461E-03 -0.4755557E-02  0.5569903E+06  0.5328269E+06  0.4744097E-02  0.3051758E-03
  0.3349999E+01  0.3143725E+06  0.7760145E+05  0.7925462E-03 -0.1037598E-02 -0.4591302E-02 -0.3933907E-03 -0.3352379E-02  0.9199381E-03  0.5635056E+06  0.5132198E+06  0.3780536E-02  0.6713867E-03
  0.3400000E+01  0.3159681E+06  0.7421293E+05  0.2679264E-02  0.2441406E-03 -0.2915327E-01 -0.5832911E-03  0.1436122E-03 -0.8163095E-02  0.5693216E+06  0.4926837E+06 -0.1983643E-02  0.1037598E-02
  0.3450000E+01  0.3172513E+06  0.7022363E+05  0.1870860E-02  0.1159668E-02 -0.1790364E-01 -0.2713203E-03  0.3538269E-03 -0.2362013E-02  0.5745084E+06  0.4690277E+06  0.6289274E-02  0.8544922E-03
  0.3500000E+01  0.3183720E+06  0.6591637E+05  0.2859933E-02 -0.1464844E-02 -0.2350726E-01 -0.5279779E-03 -0.4673550E-02 -0.1613438E-02  0.5787489E+06  0.4439238E+06  0.7672991E-03  0.2441406E-03
  0.3549999E+01  0.3197121E+06  0.6098592E+05  0.2041670E-02 -0.7019043E-03 -0.1863722E-01 -0.9495020E-03 -0.7771240E-02 -0.4333228E-02  0.5825909E+06  0.4150402E+06  0.1083159E-02 -0.6103516E-03
  0.3600001E+01  0.3202261E+06  0.5432572E+05  0.4365708E-03 -0.3051758E-04 -0.1763238E-01 -0.1135528E-02  0.5425346E-03 -0.3139168E-02  0.5828241E+06  0.3767625E+06 -0.5510118E-03 -0.4882812E-03
  0.3649999E+01  0.3206614E+06  0.4201685E+05 -0.8779031E-04 -0.2136230E-03 -0.1719018E-01  0.1140833E-03 -0.4147047E-02  0.1451820E-03  0.5794624E+06  0.3060024E+06  0.4932979E-02 -0.4882812E-03
  0.3700001E+01  0.3237770E+06  0.7025035E+04  0.1814558E-02 -0.1373291E-03 -0.8643896E-02 -0.4907846E-03  0.5212732E-02  0.1014471E-03  0.5889611E+06  0.8356578E+05  0.3200221E-02  0.6103516E-04
  0.3750000E+01  0.3403316E+06  0.3268398E+05  0.1546224E-02  0.9155273E-04  0.1041667E-02 -0.4770756E-03  0.3906250E-03  0.9279251E-03  0.6974034E+06  0.1933591E+06 -0.2329508E-02  0.1525879E-03
  0.3800000E+01  0.3364807E+06  0.5430596E+05  0.2047890E-03  0.3356934E-03 -0.1811781E-01  0.1940727E-03  0.1927426E-03 -0.4372001E-03  0.6750581E+06  0.3459518E+06 -0.4999262E-03 -0.7934570E-03
  0.3850000E+01  0.3350374E+06  0.5433109E+05 -0.3917000E-02 -0.3662109E-03 -0.4185267E-02  0.6492734E-03  0.3360896E-02  0.7802248E-04  0.6645962E+06  0.3541985E+06 -0.7926643E-05 -0.7934570E-03
  0.3900000E+01  0.3348282E+06  0.5258986E+05  0.1572829E-02  0.3051758E-04  0.6009615E-02  0.7872581E-03  0.3317808E-02  0.5590916E-03  0.6615264E+06  0.3464598E+06  0.3739381E-02  0.5493164E-03
  0.3950000E+01  0.3352179E+06  0.4951346E+05 -0.1621005E-02 -0.2136230E-03  0.7540546E-02  0.7412434E-03  0.3708465E-03  0.1290321E-02  0.6620630E+06  0.3301892E+06  0.2748514E-02  0.8544922E-03
  0.4000001E+01  0.3362355E+06  0.4683884E+05 -0.3204345E-03  0.6103516E-04  0.1184082E-01  0.9703636E-03  0.7873533E-02  0.5212665E-02  0.6650249E+06  0.3146043E+06 -0.3582000E-02 -0.4272461E-03
Zone t="Motion of body    1 in DoF   2",I=    80,F=POINT
  0.5000000E-01 -0.1274109E-01 -0.3296918E-11  0.5807405E+06  0.3992145E-03  0.4138946E-02  0.7560175E-11 -0.1778938E+07 -0.1193875E-02  0.3128051E-02  0.5684342E-11 -0.3643035E-02 -0.1471722E-06
  0.9999999E-01  0.1243591E-01  0.9094947E-10  0.5842501E+06  0.4896835E-01  0.1144409E-03 -0.1527951E-09 -0.1787743E+07 -0.1512307E+00  0.1754761E-02  0.1920853E-08 -0.6179811E-02  0.6941264E-08
  0.1500000E+00 -0.8138022E-03 -0.9953510E-08  0.5900975E+06  0.8388035E+00  0.8392335E-03 -0.3085006E-08 -0.1812477E+07 -0.2600193E+01 -0.1037598E-01  0.3492460E-07  0.1388550E-01  0.3380934E-05
  0.2000000E+00  0.5340577E-03 -0.5401671E-07  0.5926649E+06  0.6193047E+01  0.7629395E-04 -0.1676381E-07 -0.1820625E+07 -0.1924690E+02 -0.1289368E-01 -0.6519258E-07 -0.9193421E-02 -0.4670583E-05
  0.2500000E+00  0.5004883E-02 -0.4097819E-07  0.5964613E+06  0.2904780E+02 -0.4882812E-03 -0.7282943E-06 -0.1835659E+07 -0.9062406E+02 -0.1123047E-01  0.2980232E-06  0.1248169E-01 -0.6655231E-05
  0.3000000E+00  0.1525879E-02  0.1639128E-05  0.6016232E+06  0.1019766E+03  0.2365112E-02  0.1147389E-05 -0.1857860E+07 -0.3198367E+03  0.2126058E-01 -0.2086163E-06 -0.1408895E-01  0.5910918E-04
  0.3500000E+00  0.8326939E-02 -0.6556511E-06  0.6073910E+06  0.2928025E+03 -0.1613072E-02  0.3740191E-05 -0.1880164E+07 -0.9234474E+03  0.2929688E-01 -0.1192093E-06  0.2833775E-03  0.2993643E-04
  0.4000001E+00  0.1068115E-02  0.8642673E-05  0.6144371E+06  0.7254542E+03  0.1506805E-02  0.8344650E-06 -0.1905202E+07 -0.2301419E+04  0.5340575E-02 -0.1311302E-04  0.3128051E-02  0.7650256E-04
  0.4499998E+00 -0.6578236E-02  0.2539158E-04  0.6235129E+06  0.1605749E+04  0.5035402E-02  0.5483627E-05 -0.1942637E+07 -0.5134615E+04 -0.1220704E-02 -0.3051758E-04  0.1244439E-01  0.2849102E-04
  0.5000001E+00  0.1525879E-02  0.4053116E-05  0.6334814E+06  0.3247570E+04  0.3158569E-02 -0.3385544E-04 -0.1978498E+07 -0.1046214E+05 -0.2441406E-03  0.5722046E-05  0.3204345E-02 -0.6234646E-04
  0.5500002E+00 -0.7768108E-03 -0.1955032E-04  0.6461418E+06  0.6108921E+04 -0.3329189E-03  0.7033348E-04 -0.2029265E+07 -0.1986766E+05 -0.3306995E-01 -0.2670288E-04  0.5548649E-04  0.1730919E-03
  0.5999997E+00  0.9918217E-02  0.4005432E-04  0.6603130E+06  0.1081432E+05 -0.6866458E-03  0.9441376E-04 -0.2085501E+07 -0.3552673E+05  0.1352946E-01 -0.5912781E-04  0.3560386E-02  0.4253387E-03
  0.6499999E+00 -0.2817007E-02 -0.1907349E-05  0.6755236E+06  0.1816747E+05  0.2910908E-02 -0.1783371E-03 -0.2143245E+07 -0.6028554E+05  0.6573017E-03  0.5455017E-03 -0.6807768E-03  0.9346008E-04
  0.6999999E+00  0.8893695E-02  0.2288818E-03  0.6925378E+06  0.2918338E+05  0.4076276E-02  0.3890991E-03 -0.2214451E+07 -0.9802622E+05  0.1499721E-01  0.1296997E-03 -0.1698085E-01  0.2193451E-03
  0.7499999E+00 -0.6510417E-03  0.2975464E-03  0.7095862E+06  0.4504099E+05 -0.9155275E-03 -0.2098083E-03 -0.2285968E+07 -0.1531893E+06  0.1497396E-01  0.1083374E-02  0.1424154E-01  0.9193420E-03
  0.8000000E+00 -0.1983643E-02  0.7476807E-03  0.7254910E+06  0.6699301E+05  0.1468658E-02  0.2899170E-03 -0.2352585E+07 -0.2307114E+06  0.1281738E-01  0.1235962E-02 -0.3814697E-02  0.2487183E-02
  0.8500000E+00  0.9334789E-03 -0.2136230E-03  0.7397283E+06  0.9617612E+05  0.3356934E-02 -0.1144409E-03 -0.2420139E+07 -0.3359888E+06  0.6462546E-02  0.3036499E-02  0.1920812E-01  0.5226135E-03
  0.8999999E+00  0.2305773E-02 -0.1831055E-03  0.7500998E+06  0.1336033E+06 -0.3611247E-02 -0.1075745E-02 -0.2476981E+07 -0.4738350E+06 -0.1912435E-01 -0.2716064E-02  0.1970079E-01  0.1136780E-02
  0.9499999E+00  0.1541941E-02  0.1464844E-02  0.7543734E+06  0.1796780E+06  0.3340872E-02 -0.5950928E-03 -0.2512687E+07 -0.6471747E+06 -0.3854852E-03  0.3662109E-03 -0.3212377E-03  0.3746033E-02
  0.1000000E+01  0.1464844E-02  0.1037598E-02  0.7497408E+06  0.2337225E+06 -0.3860473E-02  0.2334595E-02 -0.2514097E+07 -0.8548592E+06  0.2050781E-01  0.1290894E-01  0.5920410E-02  0.5798340E-02
  0.1050000E+01  0.1162574E-03 -0.3295898E-02  0.7359837E+06  0.2936711E+06 -0.2267020E-02  0.2288818E-03 -0.2484576E+07 -0.1092169E+07  0.3255208E-02 -0.1068115E-02  0.1380557E-01 -0.2380371E-02
  0.1100000E+01  0.9210760E-02  0.4150391E-02  0.7120722E+06  0.3567731E+06 -0.1248447E-02 -0.1319885E-02 -0.2417034E+07 -0.1350236E+07 -0.1109730E-02  0.9277344E-02 -0.1298384E-01  0.7019043E-03
  0.1150000E+01 -0.8491849E-03 -0.1220703E-03  0.6775551E+06  0.4191259E+06  0.1393194E-02 -0.5493164E-03 -0.2304872E+07 -0.1614329E+07  0.3502888E-02  0.2685547E-02 -0.5572776E-03 -0.3601074E-02
  0.1200000E+01 -0.5798340E-02 -0.3784180E-02  0.6351978E+06  0.4763196E+06 -0.5251567E-02 -0.1068115E-03 -0.2158271E+07 -0.1868208E+07 -0.2558391E-01 -0.4211426E-02  0.6306966E-02 -0.1263428E-01
  0.1250000E+01  0.4003907E-02  0.2685547E-02  0.5872578E+06  0.5246955E+06 -0.2880860E-02  0.1113892E-02 -0.1984904E+07 -0.2097212E+07 -0.1411133E-01 -0.2124023E-01  0.1809082E-01  0.7476807E-02
  0.1300000E+01  0.5634015E-03 -0.2563477E-02  0.5364619E+06  0.5617961E+06 -0.2934383E-03  0.1724243E-02 -0.1792108E+07 -0.2288478E+07 -0.1051683E-01 -0.1177979E-01  0.7112944E-02 -0.9765625E-03
  0.1350000E+01  0.5334925E-02  0.1708984E-02  0.4868775E+06  0.5867524E+06  0.3345631E-02 -0.6103516E-03 -0.1596553E+07 -0.2436008E+07 -0.6736474E-02 -0.1153564E-01 -0.2983941E-02  0.1052856E-01
  0.1400000E+01 -0.1438686E-02  0.1831055E-02  0.4398878E+06  0.5992755E+06  0.2593994E-02  0.1754761E-02 -0.1404418E+07 -0.2536750E+07  0.5754744E-02 -0.1531982E-01 -0.2005441E-02 -0.9155273E-02
  0.1450000E+01  0.7576779E-03 -0.4882812E-03  0.3978108E+06  0.6009777E+06  0.5472119E-03  0.4043579E-03 -0.1226023E+07 -0.2594804E+07  0.1069168E-01  0.3039551E-01 -0.5619444E-02  0.1196289E-01
  0.1500000E+01  0.7893881E-02  0.5615234E-02  0.3610313E+06  0.5932946E+06 -0.2237956E-02  0.6256104E-03 -0.1063396E+07 -0.2612734E+07 -0.8138022E-04 -0.6713867E-02 -0.7619223E-02  0.9826660E-02
  0.1550000E+01 -0.9450605E-03  0.6713867E-02  0.3304111E+06  0.5790784E+06 -0.1683389E-02  0.3433228E-03 -0.9215195E+06 -0.2599612E+07 -0.5119078E-02  0.1559448E-01  0.2795804E-02 -0.3967285E-02
  0.1600000E+01 -0.3318787E-02  0.4638672E-02  0.3051656E+06  0.5591582E+06 -0.9536743E-03 -0.1632690E-02 -0.7987366E+06 -0.2559466E+07 -0.5798340E-02 -0.2874756E-01 -0.3376007E-02 -0.2868652E-02
  0.1650000E+01  0.9432708E-03 -0.4638672E-02  0.2852348E+06  0.5355726E+06  0.1664595E-03  0.2555847E-03 -0.6961636E+06 -0.2500161E+07  0.2552380E-02 -0.3518677E-01  0.1377915E-02  0.8117676E-02
  0.1700000E+01  0.2836340E-02  0.1831055E-02  0.2699128E+06  0.5102222E+06 -0.3949334E-03 -0.3013611E-03 -0.6112594E+06 -0.2427652E+07 -0.9693821E-03 -0.4927063E-01  0.4137825E-02 -0.6103516E-03
  0.1750000E+01 -0.1525879E-02 -0.2929688E-02  0.2582636E+06  0.4834522E+06 -0.2659389E-02 -0.8773804E-04 -0.5412870E+06 -0.2343754E+07  0.8719309E-03 -0.1208496E-01  0.9072441E-02 -0.1599121E-01
  0.1800000E+01 -0.2221002E-02 -0.1220703E-03  0.2501068E+06  0.4567666E+06  0.1729330E-02 -0.3566742E-03 -0.4862624E+06 -0.2254943E+07  0.7459853E-03  0.1414490E-01  0.4810758E-03  0.4943848E-02
  0.1850000E+01 -0.4948798E-04 -0.6347656E-02  0.2445611E+06  0.4300762E+06 -0.3546638E-03 -0.8392334E-04 -0.4426913E+06 -0.2161522E+07  0.4618877E-03 -0.9918213E-04  0.4778682E-02 -0.6958008E-02
  0.1900000E+01  0.1203638E-02 -0.5493164E-02  0.2413837E+06  0.4041099E+06 -0.2441406E-02 -0.9536743E-04 -0.4101549E+06 -0.2067012E+07  0.6232012E-02  0.1008606E-01  0.2037350E-02 -0.1831055E-03
  0.1950000E+01 -0.4010324E-04 -0.7324219E-03  0.2398577E+06  0.3801291E+06 -0.2191006E-03 -0.1373291E-03 -0.3855163E+06 -0.1975506E+07 -0.1314604E-02  0.2009583E-01 -0.1583833E-02 -0.2136230E-02
  0.2000000E+01 -0.1968384E-02  0.6835938E-02  0.2395716E+06  0.3558679E+06 -0.9613038E-03  0.6866455E-04 -0.3671072E+06 -0.1880956E+07  0.5493165E-03  0.1651001E-01 -0.2613068E-03  0.4760742E-02
  0.2050000E+01 -0.6847848E-03  0.2075195E-02  0.2405025E+06  0.3342588E+06 -0.8783109E-03 -0.5054474E-04 -0.3554789E+06 -0.1793252E+07  0.0000000E+00  0.2103424E-01  0.5749959E-03  0.1983643E-02
  0.2100000E+01 -0.8356003E-03 -0.1098633E-02  0.2421640E+06  0.3134822E+06  0.2165295E-02  0.2336502E-04 -0.3485181E+06 -0.1705823E+07  0.1511347E-02  0.1649284E-01  0.1871018E-03 -0.3662109E-02
  0.2150000E+01  0.8729447E-03  0.1220703E-03  0.2444562E+06  0.2943839E+06 -0.4258267E-04  0.1478195E-04 -0.3458055E+06 -0.1623046E+07  0.1703307E-03 -0.7266998E-02 -0.7899085E-02 -0.3051758E-02
  0.2200000E+01 -0.4501344E-02 -0.6103516E-03  0.2474011E+06  0.2765339E+06  0.9710141E-04  0.3767014E-04 -0.3471503E+06 -0.1544445E+07 -0.1831055E-02  0.4173279E-02  0.1293529E-02 -0.6408691E-03
  0.2250000E+01  0.0000000E+00  0.1220703E-03  0.2501284E+06  0.2605713E+06  0.2115885E-02  0.3099442E-05 -0.3492252E+06 -0.1471141E+07  0.1953125E-02 -0.3868103E-02  0.1864963E-03 -0.1800537E-02
  0.2300000E+01  0.1519245E-02 -0.1586914E-02  0.2533880E+06  0.2444906E+06  0.2746582E-02 -0.6914139E-05 -0.3535568E+06 -0.1397143E+07 -0.4298999E-02  0.2967739E-01  0.8057305E-02 -0.5676270E-02
  0.2350000E+01 -0.7142412E-04  0.4882812E-03  0.2564234E+06  0.2307362E+06  0.5973654E-03 -0.6556511E-04 -0.3588153E+06 -0.1331460E+07 -0.1818069E-02 -0.7997513E-02  0.6700881E-02 -0.2014160E-02
  0.2400000E+01 -0.1856486E-02  0.3417969E-02  0.2595868E+06  0.2176817E+06  0.6230673E-03  0.2861023E-05 -0.3656715E+06 -0.1268815E+07 -0.7629395E-03  0.3116608E-02  0.4606247E-02 -0.4272461E-03
  0.2450000E+01  0.1905792E-02  0.1586914E-02  0.2627742E+06  0.2051820E+06 -0.2453863E-02  0.4291534E-05 -0.3731356E+06 -0.1207804E+07 -0.2092634E-02  0.4925728E-02  0.2575310E-02  0.2014160E-02
  0.2500000E+01  0.5737304E-03 -0.6103516E-03  0.2658408E+06  0.1937025E+06 -0.2722168E-02 -0.6413460E-04 -0.3810609E+06 -0.1151708E+07  0.2539062E-02 -0.2597809E-02  0.6176758E-02 -0.1525879E-03
  0.2549999E+01  0.1388251E-02  0.6713867E-03  0.2687091E+06  0.1829632E+06 -0.2752567E-03  0.1192093E-04 -0.3884997E+06 -0.1100108E+07 -0.1627605E-02  0.1397705E-01  0.6031712E-02  0.1525879E-03
  0.2600000E+01 -0.1291128E-03 -0.2441406E-03  0.2709982E+06  0.1725831E+06 -0.2441406E-02 -0.3373623E-04 -0.3933395E+06 -0.1051058E+07  0.3474309E-02  0.1212120E-02  0.7033715E-02  0.8056641E-02
  0.2650001E+01 -0.2614147E-02  0.1037598E-02  0.2726818E+06  0.1626902E+06 -0.1808022E-02 -0.8344650E-05 -0.3939884E+06 -0.1004248E+07 -0.4191848E-02  0.6702423E-02 -0.5855919E-02 -0.6530762E-02
  0.2700000E+01 -0.2565737E-02  0.1220703E-03  0.2713100E+06  0.1525707E+06 -0.1921477E-03 -0.7581711E-04 -0.3762846E+06 -0.9614839E+06  0.9042247E-03 -0.2977371E-02  0.4577637E-02  0.1525879E-03
  0.2750000E+01 -0.1953125E-02 -0.4272461E-03  0.2610921E+06  0.2444897E+05  0.3173828E-02 -0.6628036E-04 -0.2531832E+06 -0.2282804E+06 -0.2219460E-03  0.3654480E-02  0.3662110E-03 -0.1863098E-01
  0.2800000E+01  0.3754752E-02 -0.9155273E-03  0.2962401E+06  0.1250463E+06 -0.1504081E-02 -0.1747608E-03 -0.5112262E+06 -0.7556784E+06 -0.6975447E-03 -0.4480362E-02  0.1102993E-01  0.8468628E-02
  0.2849999E+01  0.5728740E-03 -0.1831055E-03  0.2943312E+06  0.1246968E+06  0.9315895E-03 -0.4649162E-04 -0.4943998E+06 -0.7743544E+06  0.1970258E-02  0.4520416E-02 -0.2286142E-02 -0.3021240E-02
  0.2900000E+01 -0.2478238E-02  0.1708984E-02  0.2955680E+06  0.1199226E+06  0.1641635E-02  0.4887581E-04 -0.4954022E+06 -0.7541877E+06 -0.4293508E-02 -0.8773804E-03  0.4446096E-03  0.3875732E-02
  0.2949999E+01  0.2017264E-02  0.1464844E-02  0.2975668E+06  0.1148093E+06 -0.7034562E-03  0.2241135E-04 -0.5010437E+06 -0.7278340E+06  0.5710410E-02  0.3927231E-02  0.3300037E-02  0.3997803E-02
  0.3000000E+01 -0.3804524E-02  0.9155273E-03  0.2996584E+06  0.1091828E+06 -0.6103515E-03  0.8106232E-05 -0.5081044E+06 -0.6973008E+06 -0.3092448E-02  0.5032063E-02  0.3298441E-02  0.3936768E-02
  0.3050000E+01  0.4252450E-02 -0.6713867E-03  0.3021400E+06  0.1028034E+06 -0.2111216E-02 -0.1984835E-04 -0.5166017E+06 -0.6641286E+06  0.0000000E+00  0.2457619E-02  0.8717522E-02 -0.1647949E-02
  0.3100000E+01  0.8879631E-02 -0.9765625E-03  0.3045093E+06  0.9732271E+05 -0.2402029E-02 -0.3039837E-05 -0.5251669E+06 -0.6335558E+06 -0.4410282E-02 -0.3440380E-02 -0.3947597E-02  0.2746582E-03
  0.3150000E+01  0.1424154E-02  0.7934570E-03  0.3065615E+06  0.9286421E+05  0.1026941E-02 -0.6228685E-05 -0.5330642E+06 -0.6064776E+06  0.1085069E-02  0.9952784E-03 -0.7191007E-02  0.7019043E-03
  0.3199999E+01 -0.1306534E-02  0.1220703E-03  0.3087342E+06  0.8871291E+05 -0.2288819E-03 -0.8493662E-06 -0.5410868E+06 -0.5811946E+06 -0.8468631E-02 -0.4714131E-03 -0.4234315E-02 -0.2044678E-02
  0.3250000E+01  0.2037635E-02 -0.7934570E-03  0.3107686E+06  0.8431997E+05 -0.2328726E-02  0.3352761E-06 -0.5492677E+06 -0.5550641E+06 -0.3004808E-02 -0.1318040E-01  0.2011813E-02  0.4821777E-02
  0.3299999E+01  0.4623876E-04 -0.6103516E-03  0.3128100E+06  0.8074302E+05  0.2959281E-03  0.1199543E-05 -0.5569906E+06 -0.5328272E+06 -0.4216975E-02  0.5827099E-02  0.3086438E-02  0.3082275E-02
  0.3349999E+01 -0.1840165E-02 -0.3662109E-03  0.3143724E+06  0.7760141E+05 -0.3370599E-02  0.1162291E-05 -0.5635056E+06 -0.5132198E+06 -0.2915112E-03 -0.3446937E-02  0.5172047E-02  0.1983643E-02
  0.3400000E+01  0.1489976E-02  0.6103516E-03  0.3159682E+06  0.7421289E+05 -0.9693821E-03 -0.2682209E-06 -0.5693216E+06 -0.4926838E+06  0.1436122E-02 -0.1985788E-02  0.4528271E-02  0.4577637E-04
  0.3450000E+01 -0.3821331E-02  0.0000000E+00  0.3172514E+06  0.7022363E+05 -0.3290591E-02 -0.6556511E-05 -0.5745086E+06 -0.4690278E+06  0.6368885E-03  0.2397299E-02  0.7434789E-02 -0.2075195E-02
  0.3500000E+01 -0.4534041E-03  0.7934570E-03  0.3183720E+06  0.6591638E+05  0.5405971E-03  0.1147389E-05 -0.5787489E+06 -0.4439240E+06 -0.1813616E-02  0.1408815E-02  0.6692070E-02  0.2792358E-02