VARIABLES="w (rad/s)"
"A   1   1" "B   1   1"
"A   1   2" "B   1   2"
"A   1   3" "B   1   3"
"A   1   4" "B   1   4"
"A   1   5" "B   1   5"
"A   1   6" "B   1   6"
Zone t="Motion of body    1 in DoF   7",I=    40,F=POINT
  0.5000001E+00  0.6334804E+06  0.3247559E+04  0.8544921E-03 -0.3957748E-04 -0.1096191E+00 -0.3911972E-01  0.5493164E-02  0.1907349E-05  0.1978496E+07  0.1046211E+05 -0.1208496E-01 -0.3337860E-05
  0.5384617E+00  0.6431528E+06  0.5310886E+04  0.2493722E-02 -0.8106232E-05  0.1537039E+00  0.2102661E-01 -0.1643589E-01  0.6675720E-05  0.2017124E+07  0.1723280E+05 -0.4760741E-02 -0.5912781E-04
  0.5769233E+00  0.6535850E+06  0.8366166E+04  0.1057942E-02 -0.4816055E-04  0.1559407E+00  0.6970978E-01  0.7722978E-02  0.9536743E-05  0.2059082E+07  0.2735618E+05 -0.9521481E-03  0.5722046E-05
  0.6153844E+00  0.6649828E+06  0.1275365E+05 -0.1239777E-02  0.5149841E-04  0.1019593E+00  0.6478500E-01  0.1953889E-01  0.4196167E-03  0.2102783E+07  0.4202065E+05 -0.1051331E-01  0.8201599E-04
  0.6538461E+00  0.6768512E+06  0.1887142E+05 -0.1820284E-02  0.8773804E-04  0.6833066E-01  0.4590607E-01 -0.3061811E-01 -0.3814697E-05  0.2148527E+07  0.6267574E+05 -0.6254308E-02  0.2021790E-03
  0.6923077E+00  0.6898971E+06  0.2720507E+05 -0.8860270E-02 -0.2784729E-03  0.3367784E-01  0.3221130E-01 -0.3350152E-02 -0.4577637E-03  0.2203189E+07  0.9120438E+05  0.8110894E-02  0.3814697E-05
  0.7307692E+00  0.7029528E+06  0.3828489E+05  0.4384894E-02 -0.1831055E-03  0.2589176E-01  0.1046753E-01  0.1745605E-01  0.4119873E-03  0.2258367E+07  0.1295913E+06  0.6180612E-02  0.2746582E-03
  0.7692307E+00  0.7157696E+06  0.5269205E+05  0.9402466E-02  0.6408691E-03  0.5871582E-01  0.4112244E-01  0.1380615E-01 -0.1670837E-02  0.2311590E+07  0.1800588E+06  0.3649902E-02 -0.1029968E-02
  0.8076923E+00  0.7278431E+06  0.7098180E+05 -0.3778367E-03  0.2136230E-03  0.2705310E-01  0.1162720E-01  0.2040318E-02  0.1373291E-03  0.2363361E+07  0.2449738E+06 -0.7859003E-02  0.7629395E-03
  0.8461539E+00  0.7386969E+06  0.9364523E+05 -0.2885298E-02  0.1907349E-03  0.2409224E-01 -0.7324219E-02 -0.2495783E-01 -0.1312256E-02  0.2415087E+07  0.3267812E+06 -0.7213246E-03  0.2105713E-02
  0.8846153E+00  0.7474174E+06  0.1211647E+06  0.3035836E-02 -0.3356934E-03  0.2566661E-01 -0.3314209E-01 -0.6899627E-03  0.3051758E-02  0.2461180E+07  0.4277105E+06  0.5381709E-02 -0.5187988E-03
  0.9230768E+00  0.7529132E+06  0.1537939E+06 -0.5488078E-02  0.2166748E-02  0.4892985E-02  0.9857178E-02 -0.2909343E-02 -0.1983643E-02  0.2496848E+07  0.5493780E+06 -0.6744385E-02  0.6103516E-03
  0.9615384E+00  0.7538464E+06  0.1914393E+06 -0.8886719E-02 -0.1525879E-04 -0.1523437E-02 -0.1086426E-01 -0.1447266E-01  0.1293945E-01  0.2515512E+07  0.6920528E+06 -0.6474609E-02  0.1434326E-02
  0.1000000E+01  0.7497408E+06  0.2337226E+06 -0.2685547E-02 -0.2563477E-02 -0.2160644E-01 -0.1281738E-01  0.4040527E-01 -0.1800537E-02  0.2514098E+07  0.8548588E+06  0.1220703E-02  0.4394531E-02
  0.1038461E+01  0.7400424E+06  0.2794434E+06 -0.4055448E-02 -0.4882812E-03  0.1445855E-01 -0.1947021E-01 -0.5289715E-02 -0.4272461E-03  0.2494514E+07  0.1035160E+07  0.2233435E-02  0.1159668E-02
  0.1076923E+01  0.7243381E+06  0.3274387E+06  0.4193987E-02 -0.2166748E-02  0.5327498E-02  0.2685547E-02  0.3865270E-01 -0.4333496E-02  0.2453557E+07  0.1229319E+07 -0.2720424E-02  0.2563477E-02
  0.1115385E+01  0.7021888E+06  0.3760988E+06 -0.8044013E-02  0.3356934E-03 -0.3283271E-03 -0.6713867E-03  0.1707301E-01  0.1055908E-01  0.2386279E+07  0.1431277E+07 -0.2845501E-02  0.3295898E-02
  0.1153846E+01  0.6745693E+06  0.4237804E+06  0.2274577E-02  0.4455566E-02  0.3808593E-02 -0.6896973E-02  0.1586914E-01 -0.3234863E-02  0.2294757E+07  0.1634467E+07 -0.2115885E-03  0.2075195E-02
  0.1192308E+01  0.6420706E+06  0.4679814E+06 -0.4863123E-02  0.2319336E-02 -0.1945249E-02 -0.1574707E-01  0.1694415E-01  0.2258301E-02  0.2182462E+07  0.1830294E+07 -0.1423104E-01 -0.6103516E-03
  0.1230769E+01  0.6061937E+06  0.5073052E+06 -0.7637025E-02  0.1525879E-02  0.4859925E-02 -0.6469727E-02 -0.3555680E-01  0.7812500E-02  0.2054372E+07  0.2012937E+07 -0.6942751E-03 -0.2807617E-02
  0.1269231E+01  0.5680750E+06  0.5405747E+06 -0.3029563E-02  0.1129150E-01 -0.7597953E-02 -0.1129150E-01 -0.1625385E-01  0.3601074E-02  0.1912817E+07  0.2176201E+07 -0.4616478E-02  0.7446289E-02
  0.1307692E+01  0.5287741E+06  0.5665138E+06  0.3313850E-02 -0.3845215E-02  0.1670927E-01 -0.8422852E-02  0.5274156E-02  0.4681396E-01  0.1762071E+07  0.2314216E+07 -0.1120175E-01 -0.3662109E-03
  0.1346154E+01  0.4906489E+06  0.5853008E+06  0.6801061E-03 -0.6103516E-03  0.8705359E-02  0.1104736E-01  0.1060966E-01  0.3027344E-01  0.1611720E+07  0.2426404E+07 -0.6710381E-02 -0.8789062E-02
  0.1384615E+01  0.4539155E+06  0.5966531E+06 -0.7493763E-03  0.5249023E-02 -0.2274577E-01 -0.2746582E-02  0.2953424E-02  0.1428223E-01  0.1462589E+07  0.2510561E+07 -0.1146105E-02 -0.6591797E-02
  0.1423077E+01  0.4197478E+06  0.6012382E+06  0.2487595E-02 -0.2014160E-02  0.1063662E-01 -0.5126953E-02 -0.5790093E-02  0.2191162E-01  0.1320016E+07  0.2568461E+07 -0.4117399E-02  0.5615234E-02
  0.1461538E+01  0.3890136E+06  0.6002526E+06  0.2985904E-02  0.1831055E-02  0.1035670E-01  0.1953125E-02 -0.4134330E-02  0.5310059E-02  0.1187400E+07  0.2602886E+07  0.4176090E-02  0.1464844E-02
  0.1500000E+01  0.3610311E+06  0.5932945E+06 -0.2380371E-02  0.1770020E-02  0.1554362E-01  0.4516602E-02 -0.1005046E-01 -0.1617432E-02  0.1063395E+07  0.2612733E+07  0.6510416E-03  0.3417969E-02
  0.1538461E+01  0.3369242E+06  0.5828257E+06 -0.7339478E-03  0.1037598E-01  0.3570557E-02  0.1019287E-01 -0.1892395E-01  0.1052856E-01  0.9523573E+06  0.2605092E+07 -0.2182007E-02 -0.7568359E-02
  0.1576923E+01  0.3160447E+06  0.5687049E+06 -0.9676305E-04 -0.1159668E-02  0.2244903E-01 -0.2349854E-02  0.1799793E-01  0.1403809E-01  0.8525400E+06  0.2580275E+07 -0.3870522E-04 -0.2441406E-03
  0.1615385E+01  0.2984785E+06  0.5522282E+06 -0.5856469E-03 -0.1281738E-02  0.1133510E-02  0.1739502E-02 -0.9068080E-02 -0.1477051E-01  0.7649342E+06  0.2542910E+07  0.5289714E-03  0.3662109E-02
  0.1653846E+01  0.2839140E+06  0.5336699E+06  0.3044661E-02  0.3112793E-02  0.1860011E-01  0.2471924E-02  0.1144054E-02  0.2935791E-01  0.6891138E+06  0.2495108E+07  0.1992869E-02 -0.1098633E-01
  0.1692307E+01  0.2720743E+06  0.5144738E+06 -0.2163974E-02  0.2990723E-02  0.2185614E-01  0.5279541E-02 -0.3462359E-02 -0.1388550E-02  0.6234721E+06  0.2440175E+07  0.5409935E-03  0.1367188E-01
  0.1730769E+01  0.2622414E+06  0.4935205E+06 -0.3306071E-02 -0.5737305E-02  0.1015625E-01  0.3601074E-02  0.1400011E-01  0.2917480E-01  0.5661019E+06  0.2376195E+07 -0.1798503E-02  0.5615234E-02
  0.1769231E+01  0.2547976E+06  0.4731437E+06  0.2587360E-04 -0.5493164E-02  0.2297576E-01  0.1846313E-02 -0.1483420E-02 -0.5038452E-01  0.5187313E+06  0.2310611E+07  0.6554645E-03 -0.1708984E-02
  0.1807692E+01  0.2490683E+06  0.4525319E+06  0.7006057E-03 -0.9765625E-03  0.5672374E-02 -0.3814697E-02 -0.4726978E-03  0.1679993E-01  0.4787031E+06  0.2240498E+07 -0.1975202E-02  0.2685547E-02
  0.1846154E+01  0.2448973E+06  0.4321046E+06 -0.2727509E-02  0.4699707E-02  0.2182007E-02 -0.4730225E-03  0.2578735E-02 -0.2394104E-01  0.4456460E+06  0.2168735E+07 -0.9504954E-03  0.7080078E-02
  0.1884615E+01  0.2421071E+06  0.4120866E+06 -0.2941054E-02 -0.6103516E-03 -0.1133510E-01  0.7171631E-03  0.1165896E-02  0.2726746E-01  0.4190138E+06  0.2095948E+07 -0.1194234E-02  0.2441406E-02
  0.1923077E+01  0.2405261E+06  0.3926052E+06 -0.7518004E-03 -0.6591797E-02 -0.3872070E-02  0.9155273E-04 -0.1523437E-02 -0.2069855E-01  0.3978384E+06  0.2024259E+07 -0.2910003E-02 -0.2197266E-02
  0.1961538E+01  0.2397160E+06  0.3742427E+06  0.1534710E-02  0.1525879E-02  0.1680262E-02  0.6103516E-03 -0.2924901E-02 -0.9105682E-02  0.3807804E+06  0.1953253E+07  0.3121685E-02 -0.9765625E-03
  0.2000000E+01  0.2395715E+06  0.3558679E+06  0.3147126E-04 -0.8544922E-03  0.2368164E-01  0.6866455E-03 -0.4211426E-02  0.2564621E-01  0.3671072E+06  0.1880956E+07  0.1192093E-02  0.3417969E-02
Zone t="Motion of body    1 in DoF   7",I=    40,F=POINT
  0.5000001E+00  0.1525879E-02  0.4053116E-05  0.6334814E+06  0.3247570E+04  0.3158569E-02 -0.3385544E-04 -0.1978498E+07 -0.1046214E+05 -0.2441406E-03  0.5722046E-05  0.3204345E-02 -0.6234646E-04
  0.5384617E+00 -0.5724224E-02 -0.1764297E-04  0.6431528E+06  0.5310883E+04 -0.3173827E-02 -0.1189709E-03 -0.2017124E+07 -0.1723279E+05 -0.1144845E-01  0.1907349E-05  0.1419721E-01  0.1668930E-05
  0.5769233E+00 -0.1110839E-02 -0.8583069E-05  0.6535849E+06  0.8366157E+04  0.1057942E-02  0.7629395E-04 -0.2059081E+07 -0.2735620E+05  0.1068522E-01 -0.9727478E-04  0.2586669E-01 -0.7343292E-04
  0.6153844E+00 -0.6446841E-03  0.5722046E-04  0.6649835E+06  0.1275366E+05 -0.8207324E-02  0.3671646E-04 -0.2102785E+07 -0.4202067E+05  0.1973725E-01 -0.1869202E-03 -0.7339480E-02  0.2627373E-03
  0.6538461E+00 -0.4294003E-02  0.8964539E-04  0.6768516E+06  0.1887143E+05 -0.6067613E-03 -0.1859665E-03 -0.2148528E+07 -0.6267578E+05  0.1932301E-01 -0.5149841E-03  0.1789946E-01  0.1049042E-04
  0.6923077E+00  0.4055447E-02  0.3814697E-04  0.6898967E+06  0.2720505E+05 -0.1829359E-02  0.9918213E-04 -0.2203188E+07 -0.9120429E+05  0.2054172E-01 -0.3204346E-03  0.6634182E-02  0.4062653E-03
  0.7307692E+00 -0.3340872E-03  0.9536743E-04  0.7029524E+06  0.3828487E+05 -0.4217851E-02 -0.1678467E-03 -0.2258366E+07 -0.1295912E+06 -0.1252827E-02  0.2593994E-03  0.4844264E-02  0.1029968E-03
  0.7692307E+00 -0.3729248E-02 -0.7400513E-03  0.7157690E+06  0.5269197E+05 -0.3927612E-02 -0.4005432E-04 -0.2311588E+07 -0.1800586E+06 -0.2380371E-03 -0.9155273E-04 -0.5633545E-02  0.1005173E-02
  0.8076923E+00  0.3551665E-02  0.1602173E-03  0.7278429E+06  0.7098180E+05  0.3400530E-03 -0.2365112E-03 -0.2363360E+07 -0.2449738E+06  0.5969819E-02  0.8544922E-03 -0.4534040E-02  0.4730225E-03
  0.8461539E+00 -0.9305087E-02  0.9002686E-03  0.7386969E+06  0.9364523E+05  0.9016557E-04 -0.1869202E-03 -0.2415088E+07 -0.3267810E+06  0.2091841E-02  0.3356934E-03 -0.3462358E-02  0.1358032E-02
  0.8846153E+00  0.1724907E-02  0.1602173E-02  0.7474177E+06  0.1211647E+06  0.4139776E-03  0.8010864E-04 -0.2461181E+07 -0.4277112E+06 -0.3863791E-02  0.6378174E-02  0.1414423E-02  0.1068115E-03
  0.9230768E+00 -0.3239950E-02  0.6561279E-03  0.7529131E+06  0.1537939E+06  0.3917695E-02 -0.9918213E-03 -0.2496848E+07 -0.5493782E+06  0.2605184E-01 -0.2014160E-02  0.7901510E-02 -0.1937866E-02
  0.9615384E+00  0.1333008E-02 -0.1739502E-02  0.7538465E+06  0.1914393E+06 -0.2539062E-03  0.7705688E-03 -0.2515513E+07 -0.6920528E+06 -0.1980469E-01  0.1028442E-01  0.3903809E-02 -0.3753662E-02
  0.1000000E+01  0.1464844E-02  0.1037598E-02  0.7497408E+06  0.2337225E+06 -0.3860473E-02  0.2334595E-02 -0.2514097E+07 -0.8548592E+06  0.2050781E-01  0.1290894E-01  0.5920410E-02  0.5798340E-02
  0.1038461E+01 -0.1880787E-02  0.3417969E-02  0.7400426E+06  0.2794434E+06 -0.2938730E-02  0.7247925E-03 -0.2494515E+07 -0.1035161E+07 -0.2198170E-01 -0.6317139E-02  0.8786803E-02  0.4211426E-02
  0.1076923E+01  0.1190186E-01 -0.6774902E-02  0.7243385E+06  0.3274387E+06  0.1459394E-02 -0.3356934E-03 -0.2453558E+07 -0.1229319E+07  0.2267020E-03  0.1708984E-02 -0.5412511E-02  0.2304077E-02
  0.1115385E+01  0.9849812E-03 -0.2014160E-02  0.7021886E+06  0.3760986E+06  0.2831821E-02 -0.9307861E-03 -0.2386279E+07 -0.1431278E+07  0.2145070E-01 -0.5981445E-02  0.1373502E-01 -0.7293701E-02
  0.1153846E+01  0.1057943E-02 -0.1342773E-02  0.6745694E+06  0.4237806E+06  0.2274577E-02  0.4425049E-03 -0.2294758E+07 -0.1634468E+07  0.9521483E-03 -0.1843262E-01  0.2076212E-01  0.3356934E-03
  0.1192308E+01  0.1013577E-01 -0.2685547E-02  0.6420701E+06  0.4679815E+06  0.9982201E-03 -0.2899170E-03 -0.2182462E+07 -0.1830294E+07 -0.1177388E-02 -0.4028320E-01 -0.6731587E-02 -0.2624512E-02
  0.1230769E+01  0.5950929E-03 -0.6103516E-04  0.6061936E+06  0.5073052E+06 -0.2305985E-02  0.1968384E-02 -0.2054373E+07 -0.2012938E+07 -0.2851487E-01 -0.1678467E-01  0.8504868E-02  0.8850098E-03
  0.1269231E+01  0.4808831E-02  0.1464844E-02  0.5680751E+06  0.5405745E+06  0.2404415E-04  0.1098633E-02 -0.1912817E+07 -0.2176201E+07 -0.1110840E-01 -0.2398682E-01  0.3606623E-02  0.1211548E-01
  0.1307692E+01 -0.7514505E-02  0.9765625E-03  0.5287741E+06  0.5665137E+06 -0.2800437E-03 -0.1525879E-03 -0.1762070E+07 -0.2314216E+07  0.1115507E-01  0.2374268E-01  0.9591496E-02 -0.3356934E-02
  0.1346154E+01  0.4035296E-02 -0.1464844E-01  0.4906491E+06  0.5853007E+06  0.2720425E-03  0.2090454E-02 -0.1611720E+07 -0.2426402E+07 -0.2035784E-01 -0.1110840E-01  0.5871583E-02  0.3204346E-02
  0.1384615E+01 -0.4319934E-02 -0.8300781E-02  0.4539153E+06  0.5966528E+06  0.1531813E-02 -0.1655579E-02 -0.1462588E+07 -0.2510561E+07 -0.6127253E-02 -0.3662109E-03 -0.1710341E-01 -0.1708984E-02
  0.1423077E+01 -0.2230258E-02  0.1098633E-01  0.4197478E+06  0.6012382E+06  0.1329577E-02  0.4882812E-03 -0.1320016E+07 -0.2568464E+07  0.3602724E-02 -0.6469727E-02  0.2637709E-02 -0.2441406E-03
  0.1461538E+01 -0.1753958E-02  0.7324219E-02  0.3890137E+06  0.6002529E+06  0.4906906E-03  0.2120972E-02 -0.1187400E+07 -0.2602885E+07 -0.1127544E-02  0.1342773E-02 -0.4176090E-03  0.1605225E-01
  0.1500000E+01 -0.2156575E-02  0.5981445E-02  0.3610312E+06  0.5932945E+06 -0.2034505E-02  0.6103516E-03 -0.1063395E+07 -0.2612734E+07 -0.6347656E-02  0.1312256E-02 -0.7802326E-02 -0.3662109E-03
  0.1538461E+01 -0.3768921E-02  0.3784180E-02  0.3369243E+06  0.5828254E+06 -0.9918214E-03  0.2593994E-03 -0.9523581E+06 -0.2605092E+07 -0.1289368E-01  0.1293945E-01 -0.4909516E-02  0.1257324E-01
  0.1576923E+01 -0.3096418E-03 -0.2929688E-02  0.3160447E+06  0.5687053E+06  0.3386707E-03  0.4959106E-03 -0.8525409E+06 -0.2580276E+07 -0.1536597E-01 -0.2099609E-01  0.2409400E-02 -0.1611328E-01
  0.1615385E+01 -0.2267020E-03  0.6103516E-03  0.2984786E+06  0.5522284E+06  0.3967285E-03  0.3890991E-03 -0.7649342E+06 -0.2542912E+07 -0.7556734E-04  0.1559448E-01  0.2172561E-03 -0.4272461E-03
  0.1653846E+01  0.1900607E-02 -0.1342773E-02  0.2839140E+06  0.5336702E+06 -0.1310127E-02 -0.5149841E-03 -0.6891143E+06 -0.2495108E+07  0.8857195E-03  0.1367188E-01 -0.9715237E-02  0.7324219E-03
  0.1692307E+01 -0.5590266E-03  0.1342773E-02  0.2720743E+06  0.5144737E+06  0.3886136E-02  0.1564026E-03 -0.6234719E+06 -0.2440176E+07  0.2741034E-02  0.1182556E-01 -0.2984481E-02  0.4211426E-02
  0.1730769E+01 -0.1613363E-02 -0.7812500E-02  0.2622415E+06  0.4935205E+06 -0.7317438E-03 -0.5035400E-03 -0.5661021E+06 -0.2376196E+07 -0.2680122E-02 -0.3558350E-01  0.6034682E-02  0.8117676E-02
  0.1769231E+01  0.2207881E-02  0.1098633E-02  0.2547976E+06  0.4731438E+06  0.1155687E-02 -0.5722046E-04 -0.5187312E+06 -0.2310610E+07  0.3104832E-03 -0.9170532E-02 -0.4510631E-02 -0.1074219E-01
  0.1807692E+01  0.1823263E-02 -0.1049805E-01  0.2490683E+06  0.4525318E+06 -0.7006057E-03 -0.9346008E-04 -0.4787033E+06 -0.2240498E+07  0.6550241E-02 -0.2583313E-01  0.4300707E-02  0.1641846E-01
  0.1846154E+01  0.2355576E-03 -0.3295898E-02  0.2448972E+06  0.4321045E+06 -0.1198451E-02 -0.1525879E-04 -0.4456458E+06 -0.2168735E+07 -0.5950928E-03 -0.1277924E-01  0.8054415E-02 -0.3906250E-02
  0.1884615E+01  0.7691675E-04  0.5615234E-02  0.2421070E+06  0.4120865E+06  0.2137476E-02 -0.3185272E-03 -0.4190138E+06 -0.2095948E+07  0.2914740E-02 -0.1844025E-01  0.3795234E-02 -0.7812500E-02
  0.1923077E+01 -0.1135883E-02  0.2075195E-02  0.2405261E+06  0.3926052E+06 -0.1079101E-02  0.1564026E-03 -0.3978385E+06 -0.2024259E+07 -0.4443359E-03  0.1061249E-01 -0.5079984E-03  0.8056641E-02
  0.1961538E+01 -0.1832925E-02  0.8544922E-03  0.2397159E+06  0.3742429E+06  0.4356235E-03  0.1811981E-04 -0.3807805E+06 -0.1953253E+07 -0.2738205E-02 -0.1577377E-01 -0.6587834E-02 -0.1220703E-03
  0.2000000E+01 -0.1968384E-02  0.6835938E-02  0.2395716E+06  0.3558679E+06 -0.9613038E-03  0.6866455E-04 -0.3671072E+06 -0.1880956E+07  0.5493165E-03  0.1651001E-01 -0.2613068E-03  0.4760742E-02
Zone t="Motion of body    1 in DoF   7",I=    40,F=POINT
  0.5000001E+00 -0.2886963E-01  0.3799438E-02 -0.1584625E-01 -0.3990173E-02  0.2590120E+06  0.1881215E+05  0.2153320E+00 -0.1145935E-01 -0.3906250E-02  0.3308105E-01  0.6103515E-04 -0.3051758E-04
  0.5384617E+00 -0.1001456E+00 -0.7751465E-02  0.3265925E-02 -0.2246857E-02  0.2550475E+06  0.2096766E+05 -0.1099504E+00 -0.7522583E-01 -0.5277621E+00  0.4760742E-02  0.1416887E-04 -0.5340576E-04
  0.5769233E+00 -0.6210121E-01 -0.8911133E-02  0.6579078E-02 -0.3047943E-02  0.2500969E+06  0.2283628E+05 -0.2369791E+00 -0.1754150E+00 -0.2649088E+00 -0.2355957E-01 -0.9256994E-04 -0.6866455E-04
  0.6153844E+00 -0.8936313E-01 -0.1220703E-03 -0.3768922E-02  0.7728577E-02  0.2463035E+06  0.2432591E+05  0.1434174E+00 -0.4949951E-01 -0.1531373E+00 -0.1550293E-01  0.4959108E-04  0.0000000E+00
  0.6538461E+00 -0.7157449E-01 -0.4577637E-03 -0.2129499E-02 -0.7274628E-02  0.2413587E+06  0.2539680E+05  0.1278866E+00 -0.1221313E+00 -0.7019761E-01 -0.1672363E-01  0.3500546E-04  0.1068115E-03
  0.6923077E+00 -0.8992513E-02  0.9094238E-02 -0.4793803E-02  0.4837036E-02  0.2381250E+06  0.2605747E+05 -0.3702799E-01  0.3479004E-02 -0.3808594E-01  0.2490234E-01  0.6612142E-04  0.0000000E+00
  0.7307692E+00 -0.6988686E-01  0.5981445E-02 -0.9385762E-02 -0.6072998E-02  0.2340293E+06  0.2619738E+05  0.3925524E-01  0.3048706E-01 -0.9354441E-01 -0.4028320E-01  0.7308157E-04 -0.1068115E-03
  0.7692307E+00 -0.3110352E-01  0.2374268E-01 -0.8150292E-02  0.4570007E-02  0.2306316E+06  0.2594480E+05 -0.1339355E+00 -0.5191040E-01 -0.8251954E-01  0.1220703E-02 -0.1338959E-03  0.9155273E-04
  0.8076923E+00 -0.2385094E-01  0.6317139E-02 -0.5360558E-03  0.1061249E-01  0.2290710E+06  0.2541319E+05 -0.3007580E-01 -0.1507568E+00 -0.1209077E-02 -0.1318359E-01  0.8973621E-04  0.7629395E-04
  0.8461539E+00 -0.2745542E-01  0.7385254E-02 -0.8360603E-02 -0.5752563E-02  0.2258854E+06  0.2424078E+05  0.2037021E+00  0.3616333E-01 -0.4847301E-01  0.3283691E-01 -0.1127070E-03  0.0000000E+00
  0.8846153E+00 -0.3842230E-02 -0.7019043E-02  0.2970074E-02  0.2861023E-02  0.2238925E+06  0.2291057E+05  0.1099801E+00 -0.5090332E-01 -0.7727582E-02 -0.9497070E-01 -0.7330854E-04 -0.1525879E-03
  0.9230768E+00 -0.9009464E-02 -0.3967285E-02  0.4543193E-02  0.2304077E-02  0.2234128E+06  0.2161333E+05  0.1059265E+00  0.1405334E-01 -0.1904297E-01 -0.7812500E-02 -0.7123066E-04 -0.1525879E-04
  0.9615384E+00 -0.1861450E-01 -0.1068115E-01  0.1010269E-01  0.9490967E-02  0.2222386E+06  0.1972807E+05  0.1489160E+00 -0.3129578E-01 -0.6601562E-01  0.3283691E-01 -0.1983643E-04 -0.1068115E-03
  0.1000000E+01  0.1694488E-01  0.2148438E-01 -0.1091957E-02  0.1655579E-02  0.2212532E+06  0.1770263E+05 -0.4333496E-01  0.1481476E+00  0.7421874E-01  0.4235840E-01 -0.7057189E-04 -0.1068115E-03
  0.1038461E+01  0.1286429E-01  0.1556396E-01  0.2086499E-02 -0.2059937E-02  0.2212532E+06  0.1597625E+05  0.3526476E-01 -0.8470154E-01 -0.2633102E-01  0.1855469E-01  0.2204048E-04  0.0000000E+00
  0.1076923E+01  0.1652091E-01 -0.2746582E-02  0.1615252E-02  0.1146698E-01  0.2223237E+06  0.1479611E+05  0.2913121E-01 -0.5789185E-01  0.4987444E-01  0.2014160E-01  0.0000000E+00  0.6103516E-04
  0.1115385E+01  0.1461055E-01  0.7202148E-02 -0.6327136E-04 -0.1033020E-01  0.2220104E+06  0.1236372E+05 -0.2131937E+00 -0.1550293E-01 -0.5253233E-02  0.9698486E-01 -0.3420074E-04 -0.7629395E-04
  0.1153846E+01  0.2049764E-01  0.1019287E-01  0.3157298E-02 -0.1472473E-02  0.2222291E+06  0.1036964E+05 -0.8273111E-01  0.1127625E-01  0.1345703E+00  0.4388428E-01 -0.3306071E-04 -0.9155273E-04
  0.1192308E+01  0.8728027E-02  0.8422852E-02  0.7038731E-03  0.5165100E-02  0.2229473E+06  0.8917188E+04  0.3337638E-01 -0.1150513E-01  0.7453377E-01  0.5871582E-01  0.1279769E-04 -0.1068115E-03
  0.1230769E+01 -0.1006699E-01  0.3448486E-02  0.1667500E-02  0.9002686E-02  0.2241148E+06  0.8201349E+04  0.7934572E-03 -0.1214447E+00  0.1586914E-02  0.4772949E-01 -0.1239777E-04 -0.4577637E-04
  0.1269231E+01  0.4303904E-02  0.2868652E-02 -0.1550848E-02  0.3547668E-02  0.2249161E+06  0.6773125E+04  0.2038944E-01  0.4991913E-01  0.7463305E-01  0.1486206E-01  0.7814350E-04 -0.9155273E-04
  0.1307692E+01 -0.9031408E-02 -0.7934570E-03 -0.3859352E-02 -0.5722046E-03  0.2255578E+06  0.5075024E+04  0.1144445E+00  0.2539062E-01  0.6870405E-01  0.3567505E-01  0.0000000E+00  0.3051758E-04
  0.1346154E+01 -0.1428223E-01 -0.3326416E-02  0.7651194E-04 -0.6031036E-02  0.2263114E+06  0.3927878E+04 -0.5694756E-01  0.4259491E-01  0.6964287E-01 -0.3198242E-01 -0.4534041E-04  0.6103516E-04
  0.1384615E+01 -0.1586914E-02 -0.5706787E-02 -0.3768922E-02  0.4886627E-02  0.2271586E+06  0.3333336E+04 -0.3438314E-01  0.6202698E-02  0.2045356E-01 -0.6790161E-01 -0.4408096E-04 -0.3051758E-04
  0.1423077E+01  0.1378900E-01  0.3967285E-02 -0.3886868E-03 -0.3231049E-02  0.2280218E+06  0.3305802E+04  0.5318308E-01 -0.1906586E-01 -0.4666386E-01 -0.7873535E-02  0.0000000E+00  0.1525879E-04
  0.1461538E+01  0.9542366E-02 -0.2136230E-02 -0.3513136E-02  0.6816864E-02  0.2287739E+06  0.2585673E+04  0.4159386E-01  0.1133728E-01  0.5746300E-01 -0.1037598E-02  0.2088045E-04  0.4577637E-04
  0.1500000E+01 -0.2685547E-02  0.4943848E-02 -0.4414876E-02  0.3677368E-02  0.2295004E+06  0.1693331E+04  0.1017253E+00 -0.1065636E-01  0.1953125E-01  0.2441406E-01  0.3051758E-04 -0.2288818E-04
  0.1538461E+01 -0.3372193E-03 -0.3204346E-02  0.6025315E-03 -0.1266479E-02  0.2301195E+06  0.1179926E+04  0.1444092E-01 -0.2260017E-01  0.2285157E-01 -0.1389313E-01  0.9918215E-04 -0.7629395E-05
  0.1576923E+01 -0.1354683E-02  0.7934570E-02  0.5111508E-02 -0.4844666E-03  0.2306781E+06  0.9781953E+03 -0.1127096E+00  0.1057243E-01  0.1733994E-01  0.2396393E-01  0.9676305E-05  0.7629395E-05
  0.1615385E+01 -0.6782169E-02 -0.4913330E-02 -0.9582883E-02  0.1722336E-02  0.2311620E+06  0.9764770E+03  0.4201544E-01  0.1778507E-01  0.2176339E-01 -0.2323151E-01 -0.1889183E-04  0.0000000E+00
  0.1653846E+01 -0.4871458E-02  0.8239746E-03  0.1856782E-02 -0.9517670E-03  0.2315919E+06  0.1057824E+04  0.1873297E+00  0.1859093E-01  0.1110102E+00 -0.1171875E-01 -0.1845249E-04 -0.2288818E-04
  0.1692307E+01  0.6960783E-02 -0.9002686E-03  0.1212727E-02 -0.8010864E-03  0.2320811E+06  0.6901611E+03 -0.1260876E+00  0.2372074E-01 -0.3462359E-02  0.4333496E-02  0.7213247E-04  0.0000000E+00
  0.1730769E+01  0.1364746E-01  0.3524780E-02 -0.1750014E-02  0.9346008E-04  0.2325112E+06  0.5386046E+03 -0.1129883E+00 -0.4091740E-02 -0.1692708E-01  0.2026749E-01 -0.7052952E-04  0.3814697E-05
  0.1769231E+01 -0.2388996E-01 -0.3791809E-02  0.2891375E-02  0.2746582E-03  0.2328227E+06  0.4829503E+03 -0.3712000E-01  0.1039696E-01  0.3863791E-01 -0.1562500E-01  0.8624534E-05  0.7629395E-05
  0.1807692E+01 -0.1075388E-01 -0.4425049E-02  0.2838298E-02 -0.1773834E-03  0.2330826E+06  0.5425753E+03  0.2687625E+00  0.2145767E-02  0.8427528E-01 -0.1718140E-01  0.7596930E-04  0.0000000E+00
  0.1846154E+01  0.8678436E-02 -0.9689331E-03  0.1938184E-02 -0.1773834E-03  0.2333309E+06  0.6118301E+03 -0.3663127E-01 -0.4425049E-03  0.5289713E-01 -0.3719330E-02  0.8265178E-05  0.9536743E-05
  0.1884615E+01 -0.1209617E-01 -0.5111694E-02  0.4110998E-02  0.5817413E-04  0.2336182E+06  0.5588306E+03 -0.1036352E-02 -0.6477356E-02  0.2176339E-01 -0.2466202E-01  0.8096500E-04  0.1335144E-04
  0.1923077E+01  0.1625000E-01  0.1483917E-02 -0.1832886E-02  0.4034042E-03  0.2339930E+06  0.2933805E+03  0.8353515E-01 -0.2374172E-02  0.6398436E-01  0.5615234E-02 -0.1190185E-04 -0.7629395E-05
  0.1961538E+01 -0.6596585E-02 -0.5111694E-02  0.1516903E-02 -0.2598763E-03  0.2341601E+06  0.3048142E+03 -0.9832645E-01  0.8577108E-02 -0.1991422E-02 -0.2762985E-01 -0.9334790E-04  0.1907349E-05
  0.2000000E+01 -0.1235199E-01 -0.3173828E-02 -0.3885269E-02 -0.3409386E-03  0.2342722E+06  0.3801920E+03  0.1147461E-01 -0.3691673E-02 -0.2050781E-01 -0.1970100E-01 -0.3814698E-05  0.3814697E-05
Zone t="Motion of body    1 in DoF   7",I=    40,F=POINT
  0.5000001E+00  0.2197265E-02  0.1049042E-04 -0.1974645E+07 -0.1043900E+05  0.1953125E-02 -0.2279282E-03  0.8868395E+07  0.3362962E+05  0.1030273E+00 -0.1392365E-03 -0.3662109E-03 -0.3566742E-03
  0.5384617E+00 -0.2629743E-01 -0.1525879E-04 -0.2013385E+07 -0.1719017E+05 -0.8274621E-02 -0.2956390E-04  0.9025136E+07  0.5577833E+05 -0.7027760E-01 -0.1106262E-03 -0.4318672E-01  0.2145767E-03
  0.5769233E+00  0.3808592E-02 -0.2250671E-03 -0.2054986E+07 -0.2728223E+05 -0.2486164E-01  0.6294250E-04  0.9196929E+07  0.8920901E+05  0.7194007E-02 -0.1312256E-02 -0.3173827E-03 -0.7629395E-05
  0.6153844E+00 -0.2142335E-01  0.3700256E-03 -0.2098742E+07 -0.4191927E+05 -0.1299286E-01 -0.9918213E-04  0.9366049E+07  0.1381142E+06 -0.7934573E-03  0.3051758E-04 -0.2509309E-01 -0.5874634E-03
  0.6538461E+00  0.3733916E-02 -0.1144409E-02 -0.2144500E+07 -0.6255262E+05 -0.1698932E-01  0.1144409E-04  0.9540323E+07  0.2077482E+06  0.1325540E+00  0.3051758E-02 -0.2595071E-01 -0.1014709E-02
  0.6923077E+00  0.8463542E-02 -0.6866455E-04 -0.2199111E+07 -0.9099117E+05  0.9609646E-02  0.1564026E-03  0.9773963E+07  0.3050450E+06  0.2045356E-01  0.9002686E-03 -0.7246907E-01 -0.4692078E-03
  0.7307692E+00 -0.6681744E-02 -0.6103516E-03 -0.2254136E+07 -0.1292679E+06 -0.1219418E-01 -0.2441406E-03  0.1000682E+08  0.4375521E+06  0.2539062E-01  0.0000000E+00 -0.4844264E-02 -0.1525879E-04
  0.7692307E+00 -0.1777344E-01 -0.3509521E-03 -0.2307214E+07 -0.1796733E+06  0.3967285E-03 -0.9307861E-03  0.1022581E+08  0.6139782E+06  0.1142578E-01 -0.2380371E-02  0.3919678E-01  0.7629395E-05
  0.8076923E+00 -0.1360212E-01 -0.1525879E-03 -0.2359441E+07 -0.2445526E+06  0.9068080E-02 -0.8087158E-03  0.1044653E+08  0.8439964E+06  0.2430246E+00  0.5554199E-02 -0.3853934E-01 -0.4577637E-04
  0.8461539E+00 -0.3750888E-02  0.1251221E-02 -0.2410926E+07 -0.3261916E+06  0.0000000E+00 -0.1815796E-02  0.1068285E+08  0.1138209E+07  0.7501775E-02 -0.2258301E-02 -0.4428933E-01 -0.3768921E-02
  0.8846153E+00 -0.9935463E-02 -0.9765625E-03 -0.2456703E+07 -0.4268748E+06 -0.3670602E-01  0.9155273E-04  0.1090909E+08  0.1506818E+07  0.1214334E-01 -0.6103516E-03 -0.5229918E-01 -0.6942749E-02
  0.9230768E+00 -0.6347657E-02  0.5432129E-02 -0.2492392E+07 -0.5482141E+06 -0.6215414E-02 -0.2395630E-02  0.1110882E+08  0.1958297E+07 -0.4020183E-01  0.2270508E-01  0.1454671E-01  0.3662109E-03
  0.9615384E+00 -0.6093750E-02  0.2075195E-02 -0.2511306E+07 -0.6907224E+06 -0.2602539E-01 -0.5157471E-02  0.1123921E+08  0.2496722E+07 -0.8074219E-01 -0.7446289E-02  0.4748047E-01 -0.4577637E-03
  0.1000000E+01  0.2294922E-01 -0.8300781E-02 -0.2509966E+07 -0.8536836E+06  0.2392578E-01  0.1220703E-02  0.1128776E+08  0.3122168E+07  0.2832031E-01 -0.5859375E-02  0.5932617E-01  0.8361816E-02
  0.1038461E+01  0.2398004E-01  0.3906250E-02 -0.2490590E+07 -0.1033966E+07 -0.1457610E-01  0.3265381E-02  0.1128720E+08  0.3829986E+07 -0.2350984E-01  0.3491211E-01  0.3526476E-02 -0.3082275E-01
  0.1076923E+01 -0.1858957E-01  0.3662109E-02 -0.2450030E+07 -0.1227858E+07  0.3173828E-01 -0.4577637E-02  0.1121520E+08  0.4609430E+07 -0.2176339E-01 -0.2319336E-01  0.2040318E-02 -0.1776123E-01
  0.1115385E+01 -0.3195717E-01 -0.3417969E-02 -0.2382943E+07 -0.1429684E+07 -0.5362676E-02  0.3295898E-02  0.1103333E+08  0.5439504E+07 -0.5691003E-02 -0.6250000E-01 -0.4596579E-02 -0.1220703E-03
  0.1153846E+01 -0.4231771E-03  0.6347656E-02 -0.2291258E+07 -0.1633023E+07 -0.3734538E-01  0.1000977E-01  0.1074588E+08  0.6296969E+07 -0.1142578E-01 -0.1977539E-01 -0.3321940E-01  0.2807617E-02
  0.1192308E+01 -0.1228579E-02 -0.8300781E-02 -0.2179099E+07 -0.1828882E+07  0.6347656E-02 -0.6835938E-02  0.1037940E+08  0.7151970E+07 -0.1482485E+00  0.1782227E-01  0.4013357E-01 -0.4858398E-01
  0.1230769E+01 -0.2618409E-01  0.2197266E-02 -0.2051244E+07 -0.2011314E+07 -0.2677918E-02 -0.1464844E-02  0.9943073E+07  0.7979566E+07  0.8966066E-01  0.4125977E-01  0.1011658E-01  0.3906250E-02
  0.1269231E+01  0.1115649E-01  0.3369141E-01 -0.1909826E+07 -0.2174718E+07 -0.2500592E-02  0.3723145E-02  0.9430557E+07  0.8750916E+07  0.7694130E-02  0.1342773E-01 -0.2558298E-01  0.2038574E-01
  0.1307692E+01  0.1082836E-01  0.3906250E-02 -0.1759126E+07 -0.2312697E+07  0.1372214E-01  0.1220703E-01  0.8868440E+07  0.9442993E+07 -0.6497014E-01  0.1010742E+00 -0.3528550E-01  0.1281738E-01
  0.1346154E+01 -0.1632255E-01  0.4541016E-01 -0.1608588E+07 -0.2424950E+07 -0.3309850E-01 -0.6225586E-02  0.8287522E+07  0.1004747E+08 -0.1813616E-01 -0.1860352E+00 -0.2720424E-02 -0.2526855E-01
  0.1384615E+01  0.3526476E-02 -0.5322266E-01 -0.1459598E+07 -0.2509259E+07  0.2829997E-01  0.1403809E-02  0.7698863E+07  0.1055280E+08  0.3209094E-01 -0.1333008E+00 -0.2186415E-01  0.3735352E-01
  0.1423077E+01  0.0000000E+00 -0.3906250E-02 -0.1317331E+07 -0.2567169E+07  0.4546295E-02 -0.2044678E-02  0.7123107E+07  0.1096135E+08 -0.3431166E-01 -0.2197266E-02  0.2307459E-01 -0.4394531E-01
  0.1461538E+01  0.7349919E-02 -0.9765625E-03 -0.1184585E+07 -0.2601693E+07  0.1302940E-01  0.2288818E-02  0.6561914E+07  0.1126950E+08  0.1870888E-01  0.4614258E-01  0.1085783E-02 -0.1586914E-01
  0.1500000E+01 -0.3580729E-02 -0.1318359E-01 -0.1060911E+07 -0.2611505E+07  0.1538086E-01  0.4455566E-02  0.6029958E+07  0.1148560E+08  0.6087239E-01  0.1232910E-01  0.9928384E-02 -0.2514648E-01
  0.1538461E+01  0.2856446E-02 -0.4882812E-03 -0.9495111E+06 -0.2603922E+07  0.9680177E-02  0.4455566E-02  0.5529799E+07  0.1161975E+08  0.1301270E-01 -0.1573486E+00 -0.3887940E-02 -0.4003906E-01
  0.1576923E+01 -0.6966940E-02 -0.3857422E-01 -0.8496712E+06 -0.2579034E+07  0.1966225E-01 -0.1708984E-02  0.5071624E+07  0.1168287E+08  0.8360327E-02 -0.3295898E-02  0.1548209E-03 -0.4858398E-01
  0.1615385E+01  0.1057943E-01  0.1123047E-01 -0.7620828E+06 -0.2541723E+07  0.1360212E-02  0.7202148E-02  0.4655566E+07  0.1168469E+08 -0.1934524E-01  0.6872559E-01 -0.2206566E-01  0.4345703E-01