VARIABLES="Theta (rad)" "ABS(HKochin)" "ANGLE(HKochin)"
Zone t="Motion of body    1 at frequency  0.0500 rad/s",I=   181,F=POINT
  0.0000000E+00  0.6435857E+00  0.1570714E+01
  0.1745329E-01  0.1119289E+00  0.1571305E+01
  0.3490658E-01  0.6819026E+00 -0.1570822E+01
  0.5235988E-01  0.4607510E+00  0.1570876E+01
  0.6981317E-01  0.6351466E+00  0.1570921E+01
  0.8726647E-01  0.8626012E+01 -0.1570804E+01
  0.1047198E+00  0.1862545E+01  0.1570840E+01
  0.1221731E+00  0.6588734E+00 -0.1570783E+01
  0.1396263E+00  0.5197294E+00  0.1570938E+01
  0.1570796E+00  0.7341462E+00  0.1570825E+01
  0.1745329E+00  0.4502845E+00  0.1570910E+01
  0.1919862E+00  0.7348582E+00 -0.1570866E+01
  0.2094395E+00  0.2089931E+01  0.1570815E+01
  0.2268928E+00  0.7115693E+01 -0.1570806E+01
  0.2443461E+00  0.6137449E+00  0.1570828E+01
  0.2617994E+00  0.6216457E+00  0.1570772E+01
  0.2792527E+00  0.6696101E+00 -0.1570857E+01
  0.2967060E+00  0.1245845E+00 -0.1570995E+01
  0.3141593E+00  0.6115958E+00  0.1570828E+01
  0.3316126E+00  0.3362199E+00  0.1570796E+01
  0.3490659E+00  0.6252670E+00 -0.1570774E+01
  0.3665192E+00  0.2570769E+00  0.1570972E+01
  0.3839725E+00  0.5951545E+00  0.1570826E+01
  0.4014257E+00  0.9295811E+01 -0.1570796E+01
  0.4188790E+00  0.1456594E+01  0.1570795E+01
  0.4363323E+00  0.5182750E+00 -0.1570801E+01
  0.4537856E+00  0.5388461E+00  0.1570869E+01
  0.4712389E+00  0.6634060E+00  0.1570911E+01
  0.4886922E+00  0.3358662E+00  0.1570796E+01
  0.5061455E+00  0.7315504E+00 -0.1570800E+01
  0.5235988E+00  0.2115800E+01  0.1570807E+01
  0.5410521E+00  0.4903968E+01 -0.1570803E+01
  0.5585054E+00  0.5338673E+00  0.1570786E+01
  0.5759587E+00  0.7181391E+00  0.1570874E+01
  0.5934120E+00  0.5962753E+00 -0.1570784E+01
  0.6108653E+00  0.3464418E+00 -0.1570598E+01
  0.6283185E+00  0.5207107E+00  0.1570815E+01
  0.6457719E+00  0.5265411E+00  0.1570790E+01
  0.6632251E+00  0.5076115E+00 -0.1570808E+01
  0.6806784E+00  0.3000427E-01  0.1569811E+01
  0.6981317E+00  0.4945681E+00  0.1570803E+01
  0.7155850E+00  0.9053996E+01 -0.1570797E+01
  0.7330383E+00  0.9014186E+00  0.1570781E+01
  0.7504916E+00  0.3232294E+00 -0.1570763E+01
  0.7679449E+00  0.5048332E+00  0.1570687E+01
  0.7853982E+00  0.5259300E+00  0.1570886E+01
  0.8028514E+00  0.1890986E+00  0.1570852E+01
  0.8203048E+00  0.6671754E+00 -0.1570851E+01
  0.8377581E+00  0.1932805E+01  0.1570818E+01
  0.8552114E+00  0.2219308E+01 -0.1570799E+01
  0.8726646E+00  0.4006206E+00  0.1570789E+01
  0.8901180E+00  0.7474639E+00  0.1570789E+01
  0.9075713E+00  0.4574121E+00 -0.1570841E+01
  0.9250245E+00  0.5355414E+00 -0.1570815E+01
  0.9424778E+00  0.3781138E+00  0.1570786E+01
  0.9599311E+00  0.6645653E+00  0.1570831E+01
  0.9773844E+00  0.3413866E+00 -0.1570742E+01
  0.9948377E+00  0.2037397E+00 -0.1570786E+01
  0.1012291E+01  0.3461236E+00  0.1570705E+01
  0.1029744E+01  0.7926136E+01 -0.1570798E+01
  0.1047198E+01  0.2610278E+00  0.1570927E+01
  0.1064651E+01  0.1020134E+00 -0.1570619E+01
  0.1082104E+01  0.4232774E+00  0.1570723E+01
  0.1099558E+01  0.3380825E+00  0.1570803E+01
  0.1117011E+01  0.2219540E-01  0.1571006E+01
  0.1134464E+01  0.5328318E+00 -0.1570794E+01
  0.1151917E+01  0.1556337E+01  0.1570762E+01
  0.1169371E+01  0.6881043E+00  0.1570742E+01
  0.1186824E+01  0.2299424E+00  0.1570907E+01
  0.1204277E+01  0.7026130E+00  0.1570780E+01
  0.1221731E+01  0.2802659E+00 -0.1570870E+01
  0.1239184E+01  0.6718610E+00 -0.1570768E+01
  0.1256637E+01  0.2002635E+00  0.1571046E+01
  0.1274090E+01  0.7405206E+00  0.1570772E+01
  0.1291544E+01  0.1417056E+00 -0.1570785E+01
  0.1308997E+01  0.4141095E+00 -0.1570792E+01
  0.1326450E+01  0.1654605E+00  0.1570654E+01
  0.1343904E+01  0.6020005E+01 -0.1570795E+01
  0.1361357E+01  0.4079722E+00 -0.1570809E+01
  0.1378810E+01  0.1281100E+00  0.1571453E+01
  0.1396263E+01  0.2968829E+00  0.1570726E+01
  0.1413717E+01  0.1162568E+00  0.1570872E+01
  0.1431170E+01  0.1440929E+00 -0.1570657E+01
  0.1448623E+01  0.3496997E+00 -0.1570932E+01
  0.1466077E+01  0.1030672E+01  0.1570834E+01
  0.1483530E+01  0.3526665E+01  0.1570806E+01
  0.1500983E+01  0.3355716E-01  0.1573070E+01
  0.1518437E+01  0.5873716E+00  0.1570932E+01
  0.1535890E+01  0.7480866E-01 -0.1572113E+01
  0.1553343E+01  0.7436895E+00 -0.1570822E+01
  0.1570796E+01  0.1569544E-02  0.1613798E+01
  0.1588250E+01  0.7405825E+00  0.1570815E+01
  0.1605703E+01  0.7505466E-01  0.1572346E+01
  0.1623156E+01  0.5855582E+00 -0.1570934E+01
  0.1640610E+01  0.3404601E-01 -0.1572652E+01
  0.1658063E+01  0.3528679E+01 -0.1570817E+01
  0.1675516E+01  0.1032283E+01 -0.1570836E+01
  0.1692969E+01  0.3468739E+00  0.1570781E+01
  0.1710423E+01  0.1475079E+00  0.1570853E+01
  0.1727876E+01  0.1178050E+00 -0.1570924E+01
  0.1745329E+01  0.2963684E+00 -0.1570797E+01
  0.1762783E+01  0.1300209E+00 -0.1571216E+01
  0.1780236E+01  0.4053133E+00  0.1570685E+01
  0.1797689E+01  0.6020937E+01  0.1570794E+01
  0.1815143E+01  0.1666429E+00 -0.1570851E+01
  0.1832596E+01  0.4132226E+00  0.1570780E+01
  0.1850049E+01  0.1404298E+00  0.1570815E+01
  0.1867502E+01  0.7396939E+00 -0.1570792E+01
  0.1884956E+01  0.2013886E+00 -0.1571025E+01
  0.1902409E+01  0.6715008E+00  0.1570807E+01
  0.1919862E+01  0.2815971E+00  0.1570807E+01
  0.1937316E+01  0.7032992E+00 -0.1570792E+01
  0.1954769E+01  0.2257645E+00 -0.1570824E+01
  0.1972222E+01  0.6884046E+00 -0.1570765E+01
  0.1989675E+01  0.1559042E+01 -0.1570770E+01
  0.2007129E+01  0.5319281E+00  0.1570797E+01
  0.2024582E+01  0.2221408E-01 -0.1571354E+01
  0.2042035E+01  0.3361232E+00 -0.1570937E+01
  0.2059489E+01  0.4214609E+00 -0.1570748E+01
  0.2076942E+01  0.1003340E+00  0.1570813E+01
  0.2094395E+01  0.2613371E+00 -0.1570817E+01
  0.2111848E+01  0.7923989E+01  0.1570797E+01
  0.2129302E+01  0.3480088E+00 -0.1570644E+01
  0.2146755E+01  0.2018357E+00  0.1570915E+01
  0.2164208E+01  0.3427783E+00  0.1570724E+01
  0.2181662E+01  0.6670539E+00 -0.1570819E+01
  0.2199115E+01  0.3798552E+00 -0.1570756E+01
  0.2216568E+01  0.5364043E+00  0.1570819E+01
  0.2234021E+01  0.4601317E+00  0.1570842E+01
  0.2251475E+01  0.7457286E+00 -0.1570800E+01
  0.2268928E+01  0.4005225E+00 -0.1570811E+01
  0.2286381E+01  0.2214994E+01  0.1570805E+01
  0.2303835E+01  0.1932199E+01 -0.1570824E+01
  0.2321288E+01  0.6697527E+00  0.1570890E+01
  0.2338741E+01  0.1854316E+00 -0.1570716E+01
  0.2356194E+01  0.5251176E+00 -0.1570885E+01
  0.2373648E+01  0.5042516E+00 -0.1570839E+01
  0.2391101E+01  0.3246281E+00  0.1570766E+01
  0.2408554E+01  0.8992266E+00 -0.1570783E+01
  0.2426008E+01  0.9053677E+01  0.1570797E+01
  0.2443461E+01  0.4967009E+00 -0.1570811E+01
  0.2460914E+01  0.3064533E-01 -0.1571002E+01
  0.2478368E+01  0.5073662E+00  0.1570768E+01
  0.2495821E+01  0.5277613E+00 -0.1570708E+01
  0.2513274E+01  0.5216218E+00 -0.1570809E+01
  0.2530727E+01  0.3516357E+00  0.1570794E+01
  0.2548181E+01  0.5967157E+00  0.1570824E+01
  0.2565634E+01  0.7198955E+00 -0.1570857E+01
  0.2583087E+01  0.5330557E+00 -0.1570712E+01
  0.2600541E+01  0.4903290E+01  0.1570806E+01
  0.2617994E+01  0.2112394E+01 -0.1570807E+01
  0.2635447E+01  0.7331216E+00  0.1570787E+01
  0.2652900E+01  0.3348609E+00 -0.1570796E+01
  0.2670354E+01  0.6653598E+00 -0.1570920E+01
  0.2687807E+01  0.5401729E+00 -0.1570880E+01
  0.2705260E+01  0.5157573E+00  0.1570771E+01
  0.2722714E+01  0.1450797E+01 -0.1570781E+01
  0.2740167E+01  0.9296160E+01  0.1570796E+01
  0.2757620E+01  0.5957274E+00 -0.1570778E+01
  0.2775074E+01  0.2623473E+00 -0.1570847E+01
  0.2792527E+01  0.6250715E+00  0.1570769E+01
  0.2809980E+01  0.3354864E+00 -0.1570858E+01
  0.2827433E+01  0.6124000E+00 -0.1570863E+01
  0.2844887E+01  0.1298148E+00  0.1570780E+01
  0.2862340E+01  0.6690592E+00  0.1570872E+01
  0.2879793E+01  0.6229818E+00 -0.1570739E+01
  0.2897247E+01  0.6157355E+00 -0.1570813E+01
  0.2914700E+01  0.7115687E+01  0.1570804E+01
  0.2932153E+01  0.2091166E+01 -0.1570808E+01
  0.2949607E+01  0.7280343E+00  0.1570878E+01
  0.2967060E+01  0.4477042E+00 -0.1570884E+01
  0.2984513E+01  0.7341456E+00 -0.1570811E+01
  0.3001966E+01  0.5193039E+00 -0.1570943E+01
  0.3019420E+01  0.6511785E+00  0.1570747E+01
  0.3036873E+01  0.1863981E+01 -0.1570822E+01
  0.3054326E+01  0.8633444E+01  0.1570803E+01
  0.3071780E+01  0.6336977E+00 -0.1570901E+01
  0.3089233E+01  0.4620214E+00 -0.1570858E+01
  0.3106686E+01  0.6802004E+00  0.1570808E+01
  0.3124139E+01  0.1040048E+00 -0.1571308E+01
  0.3141593E+01  0.6432683E+00 -0.1570669E+01
Zone t="Motion of body    1 at frequency  0.1000 rad/s",I=   181,F=POINT
  0.0000000E+00  0.2301616E+00 -0.1571067E+01
  0.1745329E-01  0.4412724E+01 -0.1570802E+01
  0.3490658E-01  0.2290512E+01 -0.1570819E+01
  0.5235988E-01  0.7913349E+00 -0.1570845E+01
  0.6981317E-01  0.1602129E+01 -0.1570832E+01
  0.8726647E-01  0.8396534E+00 -0.1570832E+01
  0.1047198E+00  0.2571436E+01 -0.1570805E+01
  0.1221731E+00  0.1823154E+01 -0.1570808E+01
  0.1396263E+00  0.1620675E+01 -0.1570847E+01
  0.1570796E+00  0.2560291E+01 -0.1570806E+01
  0.1745329E+00  0.1496331E+01 -0.1570775E+01
  0.1919862E+00  0.1686081E+01 -0.1570834E+01
  0.2094395E+00  0.2458216E+01 -0.1570773E+01
  0.2268928E+00  0.8216098E+00 -0.1570779E+01
  0.2443461E+00  0.1489415E+01 -0.1570820E+01
  0.2617994E+00  0.7439795E+00 -0.1570872E+01
  0.2792527E+00  0.2144850E+01 -0.1570850E+01
  0.2967060E+00  0.4260746E+01 -0.1570807E+01
  0.3141593E+00  0.2182851E+00 -0.1570750E+01
  0.3316126E+00  0.4137769E+01 -0.1570803E+01
  0.3490659E+00  0.2211315E+01 -0.1570801E+01
  0.3665192E+00  0.7600285E+00 -0.1570744E+01
  0.3839725E+00  0.1556221E+01 -0.1570821E+01
  0.4014257E+00  0.7762645E+00 -0.1570814E+01
  0.4188790E+00  0.2431918E+01 -0.1570815E+01
  0.4363323E+00  0.1781243E+01 -0.1570806E+01
  0.4537856E+00  0.1587029E+01 -0.1570808E+01
  0.4712389E+00  0.2309664E+01 -0.1570804E+01
  0.4886922E+00  0.1224553E+01 -0.1570817E+01
  0.5061455E+00  0.1382711E+01 -0.1570838E+01
  0.5235988E+00  0.2103639E+01 -0.1570797E+01
  0.5410521E+00  0.7217350E+00 -0.1570730E+01
  0.5585054E+00  0.1232132E+01 -0.1570752E+01
  0.5759587E+00  0.6248562E+00 -0.1570773E+01
  0.5934120E+00  0.1791022E+01 -0.1570796E+01
  0.6108653E+00  0.3685481E+01 -0.1570794E+01
  0.6283185E+00  0.1861863E+00 -0.1570795E+01
  0.6457719E+00  0.3454907E+01 -0.1570797E+01
  0.6632251E+00  0.1915296E+01 -0.1570788E+01
  0.6806784E+00  0.6547794E+00 -0.1570761E+01
  0.6981317E+00  0.1359610E+01 -0.1570783E+01
  0.7155850E+00  0.6360860E+00 -0.1570704E+01
  0.7330383E+00  0.2056627E+01 -0.1570791E+01
  0.7504916E+00  0.1564574E+01 -0.1570765E+01
  0.7679449E+00  0.1398865E+01 -0.1570785E+01
  0.7853982E+00  0.1832915E+01 -0.1570797E+01
  0.8028514E+00  0.8336939E+00 -0.1570843E+01
  0.8203048E+00  0.9464197E+00 -0.1570847E+01
  0.8377581E+00  0.1542937E+01 -0.1570810E+01
  0.8552114E+00  0.5518806E+00 -0.1570816E+01
  0.8726646E+00  0.8532852E+00 -0.1570776E+01
  0.8901180E+00  0.4436170E+00 -0.1570887E+01
  0.9075713E+00  0.1259421E+01 -0.1570840E+01
  0.9250245E+00  0.2753200E+01 -0.1570810E+01
  0.9424778E+00  0.1354143E+00 -0.1571166E+01
  0.9599311E+00  0.2433780E+01 -0.1570820E+01
  0.9773844E+00  0.1432225E+01 -0.1570801E+01
  0.9948377E+00  0.4854129E+00 -0.1570817E+01
  0.1012291E+01  0.1030020E+01 -0.1570827E+01
  0.1029744E+01  0.4348719E+00 -0.1570858E+01
  0.1047198E+01  0.1479450E+01 -0.1570786E+01
  0.1064651E+01  0.1195564E+01 -0.1570832E+01
  0.1082104E+01  0.1072345E+01 -0.1570819E+01
  0.1099558E+01  0.1177159E+01 -0.1570830E+01
  0.1117011E+01  0.3606498E+00 -0.1570835E+01
  0.1134464E+01  0.4164655E+00 -0.1570586E+01
  0.1151917E+01  0.8334777E+00 -0.1570750E+01
  0.1169371E+01  0.3287765E+00 -0.1570751E+01
  0.1186824E+01  0.3912325E+00 -0.1570776E+01
  0.1204277E+01  0.2196327E+00 -0.1571005E+01
  0.1221731E+01  0.6066925E+00 -0.1570829E+01
  0.1239184E+01  0.1551567E+01 -0.1570812E+01
  0.1256637E+01  0.7051296E-01 -0.1571148E+01
  0.1274090E+01  0.1177012E+01 -0.1570773E+01
  0.1291544E+01  0.8090109E+00 -0.1570828E+01
  0.1308997E+01  0.2687983E+00 -0.1570669E+01
  0.1326450E+01  0.5974652E+00 -0.1570886E+01
  0.1343904E+01  0.1909117E+00 -0.1570731E+01
  0.1361357E+01  0.7564206E+00 -0.1570827E+01
  0.1378810E+01  0.7098725E+00 -0.1570814E+01
  0.1396263E+01  0.6413128E+00 -0.1570819E+01
  0.1413717E+01  0.4056316E+00 -0.1570750E+01
  0.1431170E+01  0.1477104E+00  0.1570598E+01
  0.1448623E+01  0.1540267E+00  0.1571311E+01
  0.1466077E+01  0.4017438E-01 -0.1571087E+01
  0.1483530E+01  0.7182831E-01 -0.1570820E+01
  0.1500983E+01  0.1092289E+00  0.1570696E+01
  0.1518437E+01  0.2554705E-01  0.1572224E+01
  0.1535890E+01  0.1065062E+00  0.1570926E+01
  0.1553343E+01  0.1968672E+00 -0.1570863E+01
  0.1570796E+01  0.6938473E-04  0.2259703E+01
  0.1588250E+01  0.1964683E+00  0.1570835E+01
  0.1605703E+01  0.1058612E+00 -0.1570999E+01
  0.1623156E+01  0.2507932E-01 -0.1571509E+01
  0.1640610E+01  0.1088195E+00 -0.1570597E+01
  0.1658063E+01  0.7232459E-01  0.1570051E+01
  0.1675516E+01  0.3982410E-01  0.1570359E+01
  0.1692969E+01  0.1545957E+00 -0.1571133E+01
  0.1710423E+01  0.1476270E+00 -0.1570530E+01
  0.1727876E+01  0.4055674E+00  0.1570726E+01
  0.1745329E+01  0.6419519E+00  0.1570891E+01
  0.1762783E+01  0.7100003E+00  0.1570817E+01
  0.1780236E+01  0.7565960E+00  0.1570802E+01
  0.1797689E+01  0.1907291E+00  0.1570589E+01
  0.1815143E+01  0.5978790E+00  0.1570944E+01
  0.1832596E+01  0.2686006E+00  0.1570764E+01
  0.1850049E+01  0.8089607E+00  0.1570830E+01
  0.1867502E+01  0.1177247E+01  0.1570766E+01
  0.1884956E+01  0.7068615E-01  0.1570446E+01
  0.1902409E+01  0.1551720E+01  0.1570816E+01
  0.1919862E+01  0.6074275E+00  0.1570848E+01
  0.1937316E+01  0.2194296E+00  0.1571079E+01
  0.1954769E+01  0.3912887E+00  0.1570780E+01
  0.1972222E+01  0.3275180E+00  0.1570705E+01
  0.1989675E+01  0.8316148E+00  0.1570794E+01
  0.2007129E+01  0.4160552E+00  0.1570763E+01
  0.2024582E+01  0.3599160E+00  0.1570888E+01
  0.2042035E+01  0.1177120E+01  0.1570808E+01
  0.2059489E+01  0.1072091E+01  0.1570773E+01
  0.2076942E+01  0.1195199E+01  0.1570816E+01
  0.2094395E+01  0.1478881E+01  0.1570775E+01
  0.2111848E+01  0.4346477E+00  0.1570916E+01
  0.2129302E+01  0.1028836E+01  0.1570820E+01
  0.2146755E+01  0.4853348E+00  0.1570890E+01
  0.2164208E+01  0.1433291E+01  0.1570796E+01
  0.2181662E+01  0.2434387E+01  0.1570809E+01
  0.2199115E+01  0.1348215E+00  0.1571141E+01
  0.2216568E+01  0.2753104E+01  0.1570788E+01
  0.2234021E+01  0.1260397E+01  0.1570829E+01
  0.2251475E+01  0.4437467E+00  0.1570845E+01
  0.2268928E+01  0.8534539E+00  0.1570818E+01
  0.2286381E+01  0.5506727E+00  0.1570825E+01
  0.2303835E+01  0.1543688E+01  0.1570828E+01
  0.2321288E+01  0.9462080E+00  0.1570843E+01
  0.2338741E+01  0.8336486E+00  0.1570765E+01
  0.2356194E+01  0.1833611E+01  0.1570793E+01
  0.2373648E+01  0.1398723E+01  0.1570789E+01
  0.2391101E+01  0.1565038E+01  0.1570749E+01
  0.2408554E+01  0.2057211E+01  0.1570788E+01
  0.2426008E+01  0.6356361E+00  0.1570810E+01
  0.2443461E+01  0.1359491E+01  0.1570791E+01
  0.2460914E+01  0.6543869E+00  0.1570748E+01
  0.2478368E+01  0.1915848E+01  0.1570771E+01
  0.2495821E+01  0.3454455E+01  0.1570806E+01
  0.2513274E+01  0.1853676E+00  0.1570840E+01
  0.2530727E+01  0.3686301E+01  0.1570797E+01
  0.2548181E+01  0.1792281E+01  0.1570764E+01
  0.2565634E+01  0.6244177E+00  0.1570719E+01
  0.2583087E+01  0.1231376E+01  0.1570773E+01
  0.2600541E+01  0.7200949E+00  0.1570807E+01
  0.2617994E+01  0.2103983E+01  0.1570793E+01
  0.2635447E+01  0.1382816E+01  0.1570809E+01
  0.2652900E+01  0.1225813E+01  0.1570802E+01
  0.2670354E+01  0.2309402E+01  0.1570811E+01
  0.2687807E+01  0.1586361E+01  0.1570800E+01
  0.2705260E+01  0.1780519E+01  0.1570826E+01
  0.2722714E+01  0.2433315E+01  0.1570801E+01
  0.2740167E+01  0.7769474E+00  0.1570797E+01
  0.2757620E+01  0.1556236E+01  0.1570813E+01
  0.2775074E+01  0.7586705E+00  0.1570771E+01
  0.2792527E+01  0.2210615E+01  0.1570804E+01
  0.2809980E+01  0.4138543E+01  0.1570802E+01
  0.2827433E+01  0.2180977E+00  0.1570855E+01
  0.2844887E+01  0.4260082E+01  0.1570808E+01
  0.2862340E+01  0.2144690E+01  0.1570849E+01
  0.2879793E+01  0.7440948E+00  0.1570824E+01
  0.2897247E+01  0.1488881E+01  0.1570819E+01
  0.2914700E+01  0.8212953E+00  0.1570799E+01
  0.2932153E+01  0.2457516E+01  0.1570792E+01
  0.2949607E+01  0.1684940E+01  0.1570790E+01
  0.2967060E+01  0.1496884E+01  0.1570776E+01
  0.2984513E+01  0.2560290E+01  0.1570788E+01
  0.3001966E+01  0.1620838E+01  0.1570850E+01
  0.3019420E+01  0.1820652E+01  0.1570810E+01
  0.3036873E+01  0.2570898E+01  0.1570812E+01
  0.3054326E+01  0.8405787E+00  0.1570817E+01
  0.3071780E+01  0.1600770E+01  0.1570819E+01
  0.3089233E+01  0.7908587E+00  0.1570818E+01
  0.3106686E+01  0.2290238E+01  0.1570821E+01
  0.3124139E+01  0.4412888E+01  0.1570801E+01
  0.3141593E+01  0.2293746E+00  0.1571048E+01
Zone t="Motion of body    1 at frequency  0.1500 rad/s",I=   181,F=POINT
  0.0000000E+00  0.3054534E+01 -0.1570800E+01
  0.1745329E-01  0.3199331E+01 -0.1570795E+01
  0.3490658E-01  0.3207840E+01 -0.1570799E+01
  0.5235988E-01  0.3213871E+01 -0.1570768E+01
  0.6981317E-01  0.3149767E+01 -0.1570794E+01
  0.8726647E-01  0.3709447E+01 -0.1570805E+01
  0.1047198E+00  0.3051807E+01 -0.1570783E+01
  0.1221731E+00  0.3331007E+01 -0.1570796E+01
  0.1396263E+00  0.3234042E+01 -0.1570777E+01
  0.1570796E+00  0.2965579E+01 -0.1570797E+01
  0.1745329E+00  0.3205191E+01 -0.1570782E+01
  0.1919862E+00  0.3289443E+01 -0.1570792E+01
  0.2094395E+00  0.3018403E+01 -0.1570790E+01
  0.2268928E+00  0.3621019E+01 -0.1570797E+01
  0.2443461E+00  0.3076203E+01 -0.1570784E+01
  0.2617994E+00  0.3114596E+01 -0.1570799E+01
  0.2792527E+00  0.3080537E+01 -0.1570782E+01
  0.2967060E+00  0.3073599E+01 -0.1570786E+01
  0.3141593E+00  0.2905564E+01 -0.1570769E+01
  0.3316126E+00  0.3013453E+01 -0.1570787E+01
  0.3490659E+00  0.3021508E+01 -0.1570785E+01
  0.3665192E+00  0.2998593E+01 -0.1570791E+01
  0.3839725E+00  0.2914597E+01 -0.1570835E+01
  0.4014257E+00  0.3435845E+01 -0.1570787E+01
  0.4188790E+00  0.2787911E+01 -0.1570804E+01
  0.4363323E+00  0.3047750E+01 -0.1570801E+01
  0.4537856E+00  0.2946898E+01 -0.1570800E+01
  0.4712389E+00  0.2673600E+01 -0.1570780E+01
  0.4886922E+00  0.2861770E+01 -0.1570794E+01
  0.5061455E+00  0.2925166E+01 -0.1570798E+01
  0.5235988E+00  0.2688466E+01 -0.1570786E+01
  0.5410521E+00  0.3177184E+01 -0.1570807E+01
  0.5585054E+00  0.2700887E+01 -0.1570804E+01
  0.5759587E+00  0.2711046E+01 -0.1570778E+01
  0.5934120E+00  0.2652346E+01 -0.1570813E+01
  0.6108653E+00  0.2645272E+01 -0.1570793E+01
  0.6283185E+00  0.2471381E+01 -0.1570808E+01
  0.6457719E+00  0.2532359E+01 -0.1570822E+01
  0.6632251E+00  0.2538072E+01 -0.1570809E+01
  0.6806784E+00  0.2489377E+01 -0.1570802E+01
  0.6981317E+00  0.2394898E+01 -0.1570805E+01
  0.7155850E+00  0.2824430E+01 -0.1570821E+01
  0.7330383E+00  0.2250677E+01 -0.1570811E+01
  0.7504916E+00  0.2464076E+01 -0.1570790E+01
  0.7679449E+00  0.2371519E+01 -0.1570804E+01
  0.7853982E+00  0.2122906E+01 -0.1570817E+01
  0.8028514E+00  0.2238476E+01 -0.1570760E+01
  0.8203048E+00  0.2275708E+01 -0.1570778E+01
  0.8377581E+00  0.2095685E+01 -0.1570800E+01
  0.8552114E+00  0.2423774E+01 -0.1570817E+01
  0.8726646E+00  0.2061846E+01 -0.1570754E+01
  0.8901180E+00  0.2041170E+01 -0.1570826E+01
  0.9075713E+00  0.1963767E+01 -0.1570786E+01
  0.9250245E+00  0.1958751E+01 -0.1570802E+01
  0.9424778E+00  0.1795678E+01 -0.1570803E+01
  0.9599311E+00  0.1802911E+01 -0.1570773E+01
  0.9773844E+00  0.1806987E+01 -0.1570795E+01
  0.9948377E+00  0.1736600E+01 -0.1570793E+01
  0.1012291E+01  0.1641001E+01 -0.1570813E+01
  0.1029744E+01  0.1937587E+01 -0.1570790E+01
  0.1047198E+01  0.1492979E+01 -0.1570790E+01
  0.1064651E+01  0.1641155E+01 -0.1570782E+01
  0.1082104E+01  0.1563650E+01 -0.1570778E+01
  0.1099558E+01  0.1362059E+01 -0.1570822E+01
  0.1117011E+01  0.1396175E+01 -0.1570779E+01
  0.1134464E+01  0.1402148E+01 -0.1570750E+01
  0.1151917E+01  0.1297338E+01 -0.1570812E+01
  0.1169371E+01  0.1432309E+01 -0.1570806E+01
  0.1186824E+01  0.1220734E+01 -0.1570780E+01
  0.1204277E+01  0.1172296E+01 -0.1570844E+01
  0.1221731E+01  0.1086555E+01 -0.1570807E+01
  0.1239184E+01  0.1080678E+01 -0.1570806E+01
  0.1256637E+01  0.9439939E+00 -0.1570870E+01
  0.1274090E+01  0.8972352E+00 -0.1570805E+01
  0.1291544E+01  0.8989889E+00 -0.1570772E+01
  0.1308997E+01  0.8141162E+00 -0.1570828E+01
  0.1326450E+01  0.7254469E+00 -0.1570877E+01
  0.1343904E+01  0.8604796E+00 -0.1570814E+01
  0.1361357E+01  0.5892847E+00 -0.1570774E+01
  0.1378810E+01  0.6569396E+00 -0.1570828E+01
  0.1396263E+01  0.6028207E+00 -0.1570858E+01
  0.1413717E+01  0.4693029E+00 -0.1570870E+01
  0.1431170E+01  0.4169710E+00 -0.1570645E+01
  0.1448623E+01  0.3915166E+00 -0.1570840E+01
  0.1466077E+01  0.3719920E+00 -0.1570950E+01
  0.1483530E+01  0.3004535E+00 -0.1570781E+01
  0.1500983E+01  0.2601458E+00 -0.1570843E+01
  0.1518437E+01  0.1885358E+00 -0.1570771E+01
  0.1535890E+01  0.9915408E-01 -0.1570753E+01
  0.1553343E+01  0.9605761E-01 -0.1571918E+01
  0.1570796E+01  0.8416720E-04 -0.2102554E+01
  0.1588250E+01  0.9602873E-01  0.1571884E+01
  0.1605703E+01  0.9721437E-01  0.1570755E+01
  0.1623156E+01  0.1885515E+00  0.1571010E+01
  0.1640610E+01  0.2600574E+00  0.1570810E+01
  0.1658063E+01  0.2998185E+00  0.1570758E+01
  0.1675516E+01  0.3722468E+00  0.1570903E+01
  0.1692969E+01  0.3913177E+00  0.1570628E+01
  0.1710423E+01  0.4173608E+00  0.1570698E+01
  0.1727876E+01  0.4697202E+00  0.1570947E+01
  0.1745329E+01  0.6028962E+00  0.1570924E+01
  0.1762783E+01  0.6575702E+00  0.1570881E+01
  0.1780236E+01  0.5891526E+00  0.1570741E+01
  0.1797689E+01  0.8605296E+00  0.1570798E+01
  0.1815143E+01  0.7258247E+00  0.1570908E+01
  0.1832596E+01  0.8139772E+00  0.1570786E+01
  0.1850049E+01  0.8988186E+00  0.1570869E+01
  0.1867502E+01  0.8975007E+00  0.1570749E+01
  0.1884956E+01  0.9439940E+00  0.1570846E+01
  0.1902409E+01  0.1080470E+01  0.1570788E+01
  0.1919862E+01  0.1083706E+01  0.1570846E+01
  0.1937316E+01  0.1172125E+01  0.1570809E+01
  0.1954769E+01  0.1220655E+01  0.1570784E+01
  0.1972222E+01  0.1432009E+01  0.1570764E+01
  0.1989675E+01  0.1296705E+01  0.1570835E+01
  0.2007129E+01  0.1401456E+01  0.1570780E+01
  0.2024582E+01  0.1395836E+01  0.1570737E+01
  0.2042035E+01  0.1362346E+01  0.1570783E+01
  0.2059489E+01  0.1563479E+01  0.1570791E+01
  0.2076942E+01  0.1641021E+01  0.1570805E+01
  0.2094395E+01  0.1493153E+01  0.1570763E+01
  0.2111848E+01  0.1937249E+01  0.1570834E+01
  0.2129302E+01  0.1640383E+01  0.1570795E+01
  0.2146755E+01  0.1736608E+01  0.1570817E+01
  0.2164208E+01  0.1807235E+01  0.1570796E+01
  0.2181662E+01  0.1802939E+01  0.1570823E+01
  0.2199115E+01  0.1795531E+01  0.1570821E+01
  0.2216568E+01  0.1958609E+01  0.1570796E+01
  0.2234021E+01  0.1967570E+01  0.1570793E+01
  0.2251475E+01  0.2041313E+01  0.1570819E+01
  0.2268928E+01  0.2061989E+01  0.1570775E+01
  0.2286381E+01  0.2423389E+01  0.1570792E+01
  0.2303835E+01  0.2094944E+01  0.1570817E+01
  0.2321288E+01  0.2274665E+01  0.1570794E+01
  0.2338741E+01  0.2238347E+01  0.1570792E+01
  0.2356194E+01  0.2121847E+01  0.1570792E+01
  0.2373648E+01  0.2371148E+01  0.1570801E+01
  0.2391101E+01  0.2464309E+01  0.1570796E+01
  0.2408554E+01  0.2250568E+01  0.1570810E+01
  0.2426008E+01  0.2824620E+01  0.1570817E+01
  0.2443461E+01  0.2395030E+01  0.1570834E+01
  0.2460914E+01  0.2488979E+01  0.1570795E+01
  0.2478368E+01  0.2539649E+01  0.1570790E+01
  0.2495821E+01  0.2532098E+01  0.1570835E+01
  0.2513274E+01  0.2471072E+01  0.1570797E+01
  0.2530727E+01  0.2645384E+01  0.1570812E+01
  0.2548181E+01  0.2653110E+01  0.1570819E+01
  0.2565634E+01  0.2710961E+01  0.1570782E+01
  0.2583087E+01  0.2700592E+01  0.1570783E+01
  0.2600541E+01  0.3177146E+01  0.1570807E+01
  0.2617994E+01  0.2688551E+01  0.1570801E+01
  0.2635447E+01  0.2925050E+01  0.1570798E+01
  0.2652900E+01  0.2861610E+01  0.1570809E+01
  0.2670354E+01  0.2673598E+01  0.1570790E+01
  0.2687807E+01  0.2946827E+01  0.1570802E+01
  0.2705260E+01  0.3046480E+01  0.1570780E+01
  0.2722714E+01  0.2788060E+01  0.1570798E+01
  0.2740167E+01  0.3435344E+01  0.1570797E+01
  0.2757620E+01  0.2916019E+01  0.1570829E+01
  0.2775074E+01  0.2997706E+01  0.1570810E+01
  0.2792527E+01  0.3020794E+01  0.1570788E+01
  0.2809980E+01  0.3014182E+01  0.1570804E+01
  0.2827433E+01  0.2906227E+01  0.1570790E+01
  0.2844887E+01  0.3073295E+01  0.1570810E+01
  0.2862340E+01  0.3080850E+01  0.1570779E+01
  0.2879793E+01  0.3114933E+01  0.1570800E+01
  0.2897247E+01  0.3076966E+01  0.1570814E+01
  0.2914700E+01  0.3620947E+01  0.1570802E+01
  0.2932153E+01  0.3017641E+01  0.1570796E+01
  0.2949607E+01  0.3288821E+01  0.1570803E+01
  0.2967060E+01  0.3204672E+01  0.1570802E+01
  0.2984513E+01  0.2965578E+01  0.1570805E+01
  0.3001966E+01  0.3234243E+01  0.1570803E+01
  0.3019420E+01  0.3331365E+01  0.1570801E+01
  0.3036873E+01  0.3051922E+01  0.1570783E+01
  0.3054326E+01  0.3709404E+01  0.1570821E+01
  0.3071780E+01  0.3149278E+01  0.1570799E+01
  0.3089233E+01  0.3213976E+01  0.1570789E+01
  0.3106686E+01  0.3207733E+01  0.1570806E+01
  0.3124139E+01  0.3199581E+01  0.1570800E+01
  0.3141593E+01  0.3055097E+01  0.1570824E+01
Zone t="Motion of body    1 at frequency  0.2000 rad/s",I=   181,F=POINT
  0.0000000E+00  0.5743280E+01 -0.1570752E+01
  0.1745329E-01  0.5512947E+01 -0.1570777E+01
  0.3490658E-01  0.5556118E+01 -0.1570781E+01
  0.5235988E-01  0.5605512E+01 -0.1570776E+01
  0.6981317E-01  0.5539965E+01 -0.1570771E+01
  0.8726647E-01  0.5561145E+01 -0.1570778E+01
  0.1047198E+00  0.5345469E+01 -0.1570778E+01
  0.1221731E+00  0.5519600E+01 -0.1570783E+01
  0.1396263E+00  0.5504380E+01 -0.1570773E+01
  0.1570796E+00  0.5507226E+01 -0.1570769E+01
  0.1745329E+00  0.5476553E+01 -0.1570767E+01
  0.1919862E+00  0.5463310E+01 -0.1570772E+01
  0.2094395E+00  0.5263685E+01 -0.1570767E+01
  0.2268928E+00  0.5436281E+01 -0.1570773E+01
  0.2443461E+00  0.5398537E+01 -0.1570773E+01
  0.2617994E+00  0.5421519E+01 -0.1570767E+01
  0.2792527E+00  0.5340772E+01 -0.1570781E+01
  0.2967060E+00  0.5277589E+01 -0.1570771E+01
  0.3141593E+00  0.5463039E+01 -0.1570767E+01
  0.3316126E+00  0.5210248E+01 -0.1570777E+01
  0.3490659E+00  0.5228841E+01 -0.1570768E+01
  0.3665192E+00  0.5241642E+01 -0.1570774E+01
  0.3839725E+00  0.5139418E+01 -0.1570772E+01
  0.4014257E+00  0.5142556E+01 -0.1570754E+01
  0.4188790E+00  0.4922708E+01 -0.1570772E+01
  0.4363323E+00  0.5036796E+01 -0.1570767E+01
  0.4537856E+00  0.4994141E+01 -0.1570789E+01
  0.4712389E+00  0.4967859E+01 -0.1570775E+01
  0.4886922E+00  0.4913055E+01 -0.1570786E+01
  0.5061455E+00  0.4871994E+01 -0.1570772E+01
  0.5235988E+00  0.4651869E+01 -0.1570778E+01
  0.5410521E+00  0.4779004E+01 -0.1570772E+01
  0.5585054E+00  0.4728503E+01 -0.1570779E+01
  0.5759587E+00  0.4706620E+01 -0.1570777E+01
  0.5934120E+00  0.4601875E+01 -0.1570772E+01
  0.6108653E+00  0.4522023E+01 -0.1570762E+01
  0.6283185E+00  0.4646675E+01 -0.1570761E+01
  0.6457719E+00  0.4394812E+01 -0.1570758E+01
  0.6632251E+00  0.4388103E+01 -0.1570773E+01
  0.6806784E+00  0.4363784E+01 -0.1570786E+01
  0.6981317E+00  0.4235328E+01 -0.1570771E+01
  0.7155850E+00  0.4219412E+01 -0.1570767E+01
  0.7330383E+00  0.4000154E+01 -0.1570775E+01
  0.7504916E+00  0.4058810E+01 -0.1570761E+01
  0.7679449E+00  0.3993103E+01 -0.1570755E+01
  0.7853982E+00  0.3942571E+01 -0.1570760E+01
  0.8028514E+00  0.3868406E+01 -0.1570790E+01
  0.8203048E+00  0.3803279E+01 -0.1570761E+01
  0.8377581E+00  0.3594535E+01 -0.1570761E+01
  0.8552114E+00  0.3654366E+01 -0.1570782E+01
  0.8726646E+00  0.3595250E+01 -0.1570767E+01
  0.8901180E+00  0.3530566E+01 -0.1570765E+01
  0.9075713E+00  0.3412765E+01 -0.1570769E+01
  0.9250245E+00  0.3326152E+01 -0.1570764E+01
  0.9424778E+00  0.3376109E+01 -0.1570782E+01
  0.9599311E+00  0.3152258E+01 -0.1570768E+01
  0.9773844E+00  0.3118950E+01 -0.1570762E+01
  0.9948377E+00  0.3059332E+01 -0.1570779E+01
  0.1012291E+01  0.2917315E+01 -0.1570782E+01
  0.1029744E+01  0.2883776E+01 -0.1570782E+01
  0.1047198E+01  0.2692183E+01 -0.1570771E+01
  0.1064651E+01  0.2684486E+01 -0.1570756E+01
  0.1082104E+01  0.2601944E+01 -0.1570801E+01
  0.1099558E+01  0.2531419E+01 -0.1570777E+01
  0.1117011E+01  0.2446667E+01 -0.1570778E+01
  0.1134464E+01  0.2362366E+01 -0.1570796E+01
  0.1151917E+01  0.2182589E+01 -0.1570760E+01
  0.1169371E+01  0.2171857E+01 -0.1570748E+01
  0.1186824E+01  0.2110637E+01 -0.1570794E+01
  0.1204277E+01  0.2009589E+01 -0.1570773E+01
  0.1221731E+01  0.1891593E+01 -0.1570796E+01
  0.1239184E+01  0.1806273E+01 -0.1570802E+01
  0.1256637E+01  0.1775029E+01 -0.1570770E+01
  0.1274090E+01  0.1601413E+01 -0.1570783E+01
  0.1291544E+01  0.1544334E+01 -0.1570761E+01
  0.1308997E+01  0.1455115E+01 -0.1570770E+01
  0.1326450E+01  0.1313324E+01 -0.1570781E+01
  0.1343904E+01  0.1265686E+01 -0.1570750E+01
  0.1361357E+01  0.1122626E+01 -0.1570764E+01
  0.1378810E+01  0.1048039E+01 -0.1570797E+01
  0.1396263E+01  0.9572176E+00 -0.1570761E+01
  0.1413717E+01  0.8721907E+00 -0.1570831E+01
  0.1431170E+01  0.7823719E+00 -0.1570782E+01
  0.1448623E+01  0.6915222E+00 -0.1570756E+01
  0.1466077E+01  0.5570242E+00 -0.1570820E+01
  0.1483530E+01  0.4763018E+00 -0.1570828E+01
  0.1500983E+01  0.4191734E+00 -0.1570955E+01