VARIABLES="X" "Y" "etaI_C" "etaI_S" "etaP_C" "etaC_S" "etaI_C+etaP_C" "etaI_S+etaI_P" "|etaP|" "|etaI+etaP|"
ZONE t="Wave frequency - Period = 0.5000000E-01",N=     0, E=     1 , F=FEPOINT,ET=QUADRILATERAL
