VARIABLES="w (rad/s)"
"abs(F   1   1)" "angle(F   1   1)"
"abs(F   1   2)" "angle(F   1   2)"
"abs(F   1   3)" "angle(F   1   3)"
"abs(F   1   4)" "angle(F   1   4)"
"abs(F   1   5)" "angle(F   1   5)"
"abs(F   1   6)" "angle(F   1   6)"
"abs(F   2   7)" "angle(F   2   7)"
"abs(F   2   8)" "angle(F   2   8)"
"abs(F   2   9)" "angle(F   2   9)"
"abs(F   2  10)" "angle(F   2  10)"
"abs(F   2  11)" "angle(F   2  11)"
"abs(F   2  12)" "angle(F   2  12)"
Zone t="Diffraction force - beta =  30.000",I=    40,F=POINT
  0.5000000E-01  0.1248002E+04 -0.3124605E+01  0.7283625E+03  0.3132804E+01  0.7534859E+03  0.1584840E+01  0.2231778E+04 -0.8788082E-02  0.3824459E+04 -0.3124482E+01  0.1593374E-02  0.5311936E-02  0.6857676E+03  0.3120954E+01  0.4034525E+03  0.3141521E+01  0.1107991E+04  0.1550259E+01  0.2902784E+03 -0.1309486E-03  0.4899116E+03  0.3104509E+01  0.3080409E+00  0.3134080E+01
  0.9999999E-01  0.4999856E+04  0.3132653E+01  0.2920599E+04  0.3106444E+01  0.3056969E+04  0.1578018E+01  0.8946106E+04 -0.3514676E-01  0.1531700E+05  0.3132841E+01  0.2355587E-02 -0.3138455E+01  0.2741095E+04  0.3120663E+01  0.1614076E+04  0.3141298E+01  0.4475509E+04  0.1562729E+01  0.1159459E+04 -0.5300035E-03  0.1953783E+04  0.3103649E+01  0.1241331E+01  0.3111851E+01
  0.1500000E+00  0.1123318E+05  0.3087388E+01  0.6595957E+04  0.3062512E+01  0.6890247E+04  0.1564797E+01  0.2030502E+05 -0.7907972E-01  0.3456537E+05  0.3087276E+01  0.1601094E-02 -0.3217006E-01  0.6140007E+04  0.3121787E+01  0.3650835E+04  0.3140951E+01  0.1013543E+05  0.1583753E+01  0.2638628E+04 -0.1133161E-02  0.4339989E+04  0.3106678E+01  0.1660116E+01  0.3049514E+01
  0.2000000E+00  0.1991798E+05  0.3028988E+01  0.1168305E+05  0.3001158E+01  0.1214078E+05  0.1546657E+01  0.3603347E+05 -0.1404269E+00  0.6143948E+05  0.3029216E+01  0.2899311E-01 -0.3131725E+01  0.1100367E+05  0.3119709E+01  0.6503662E+04  0.3140365E+01  0.1808466E+05  0.1606045E+01  0.4669591E+04 -0.2198225E-02  0.7816480E+04  0.3101182E+01  0.4928046E+01  0.3024678E+01
  0.2500000E+00  0.3086747E+05  0.2951119E+01  0.1817562E+05  0.2922444E+01  0.1852638E+05  0.1518153E+01  0.5628516E+05 -0.2191371E+00  0.9559304E+05  0.2951279E+01  0.1559063E-01  0.2202287E-01  0.1716826E+05  0.3119160E+01  0.1017702E+05  0.3139706E+01  0.2817578E+05  0.1634251E+01  0.7283491E+04 -0.3372049E-02  0.1212723E+05  0.3099806E+01  0.7672077E+01  0.2954596E+01
  0.3000000E+00  0.4384392E+05  0.2854063E+01  0.2605003E+05  0.2826590E+01  0.2557653E+05  0.1476706E+01  0.8116111E+05 -0.3149918E+00  0.1365455E+06  0.2853917E+01  0.5442891E-01  0.3107665E+01  0.2450579E+05  0.3121409E+01  0.1468641E+05  0.3139119E+01  0.4026750E+05  0.1665632E+01  0.1045417E+05 -0.4389336E-02  0.1696360E+05  0.3105299E+01  0.7362859E+01  0.2793181E+01
  0.3500000E+00  0.5862900E+05  0.2743289E+01  0.3525827E+05  0.2714373E+01  0.3257171E+05  0.1421397E+01  0.1104662E+06 -0.4271596E+00  0.1835369E+06  0.2743733E+01  0.1201475E+00 -0.3091216E+01  0.3322821E+05  0.3121856E+01  0.2009710E+05  0.3138238E+01  0.5393639E+05  0.1693972E+01  0.1421283E+05 -0.6060215E-02  0.2258371E+05  0.3106669E+01  0.1278178E+01 -0.4358769E+00
  0.4000001E+00  0.7549138E+05  0.2613163E+01  0.4571279E+05  0.2585728E+01  0.3888038E+05  0.1340594E+01  0.1439600E+06 -0.5557936E+00  0.2377085E+06  0.2613557E+01  0.2309304E-01 -0.2989697E+01  0.4369636E+05  0.3117133E+01  0.2626190E+05  0.3138135E+01  0.6901991E+05  0.1726126E+01  0.1839391E+05 -0.6247921E-02  0.2985465E+05  0.3093071E+01  0.1911994E+02  0.2746292E+01
  0.4499998E+00  0.9276449E+05  0.2455064E+01  0.5742950E+05  0.2441392E+01  0.4363607E+05  0.1225728E+01  0.1824494E+06 -0.7000847E+00  0.2943661E+06  0.2454976E+01  0.1120813E+00 -0.3445033E-01  0.5482231E+05  0.3127163E+01  0.3349538E+05  0.3138742E+01  0.8493771E+05  0.1757288E+01  0.2334032E+05 -0.5186878E-02  0.3644730E+05  0.3117375E+01  0.4432010E+01 -0.2742226E+01
  0.5000001E+00  0.1119878E+06  0.2278013E+01  0.7013650E+05  0.2281403E+01  0.4658779E+05  0.1061363E+01  0.2242875E+06 -0.8600333E+00  0.3579766E+06  0.2278141E+01  0.1424684E+00  0.6001369E-01  0.6806201E+05  0.3122283E+01  0.4144955E+05  0.3140887E+01  0.1015609E+06  0.1787564E+01  0.2857117E+05 -0.1326710E-02  0.4519371E+05  0.3101639E+01  0.2637644E+02  0.2583949E+01
  0.5500002E+00  0.1323803E+06  0.2066242E+01  0.8391202E+05  0.2105809E+01  0.4840244E+05  0.8256728E+00  0.2710518E+06 -0.1035534E+01  0.4272821E+06  0.2066282E+01  0.1344267E+00  0.6500620E+00  0.8266952E+05  0.3130672E+01  0.5073268E+05 -0.3138713E+01  0.1178833E+06  0.1815857E+01  0.3478222E+05  0.4928998E-02  0.5411017E+05  0.3122430E+01  0.1194802E+02 -0.1555366E+01
  0.5999997E+00  0.1565847E+06  0.1824742E+01  0.9843368E+05  0.1913306E+01  0.5127098E+05  0.5088701E+00  0.3212723E+06 -0.1227973E+01  0.5107018E+06  0.1824351E+01  0.9559435E-01 -0.2847835E+01  0.9858913E+05  0.3139646E+01  0.6077083E+05 -0.3132262E+01  0.1333690E+06  0.1843788E+01  0.4143695E+05  0.1619769E-01  0.6409607E+05  0.3136760E+01  0.1943052E+02 -0.2370503E+01
  0.6500000E+00  0.1880661E+06  0.1563740E+01  0.1135511E+06  0.1702798E+01  0.5803030E+05  0.1490049E+00  0.3740593E+06 -0.1438364E+01  0.6192179E+06  0.1562914E+01  0.1271608E+00  0.2496316E+01  0.1166439E+06 -0.3127662E+01  0.7211144E+05 -0.3122413E+01  0.1479815E+06  0.1867812E+01  0.4887622E+05  0.3329916E-01  0.7531238E+05 -0.3117004E+01  0.3740960E+02 -0.1758728E+01
  0.6999999E+00  0.2315991E+06  0.1307478E+01  0.1297042E+06  0.1473526E+01  0.7121315E+05 -0.1795885E+00  0.4328056E+06 -0.1667613E+01  0.7728823E+06  0.1306624E+01  0.5380535E-01 -0.3051857E+01  0.1368281E+06 -0.3102857E+01  0.8472347E+05 -0.3108263E+01  0.1602598E+06  0.1887961E+01  0.5742291E+05  0.5736660E-01  0.8852705E+05 -0.3072242E+01  0.8459158E+02 -0.1597248E+01
  0.7500000E+00  0.2881466E+06  0.1081156E+01  0.1471905E+06  0.1227263E+01  0.8823008E+05 -0.4337015E+00  0.4974401E+06 -0.1913831E+01  0.9744930E+06  0.1080552E+01  0.1704507E+00  0.2163069E+01  0.1580126E+06 -0.3064228E+01  0.9806325E+05 -0.3088860E+01  0.1711894E+06  0.1897191E+01  0.6597700E+05  0.9043248E-01  0.1017017E+06 -0.3002879E+01  0.1589135E+03 -0.1469944E+01
  0.8000000E+00  0.3523807E+06  0.8982411E+00  0.1666025E+06  0.9694494E+00  0.1060694E+06 -0.6205508E+00  0.5698203E+06 -0.2171504E+01  0.1206739E+07  0.8981615E+00  0.5106276E-01  0.1609055E+01  0.1801202E+06 -0.3009762E+01  0.1127636E+06 -0.3063600E+01  0.1803328E+06  0.1896515E+01  0.7588495E+05  0.1325211E+00  0.1161787E+06 -0.2906770E+01  0.2860895E+03 -0.1429970E+01
  0.8500000E+00  0.4109352E+06  0.7551389E+00  0.1883480E+06  0.7081266E+00  0.1186531E+06 -0.7660109E+00  0.6537613E+06 -0.2432675E+01  0.1428333E+07  0.7558352E+00  0.4117953E+00  0.2632723E+01  0.2007038E+06 -0.2941513E+01  0.1286755E+06 -0.3031546E+01  0.1906520E+06  0.1884283E+01  0.8646102E+05  0.1852774E+00  0.1288735E+06 -0.2784731E+01  0.4855704E+03 -0.1411819E+01
  0.8999999E+00  0.4430920E+06  0.6327777E+00  0.2110104E+06  0.4507222E+00  0.1219681E+06 -0.8989871E+00  0.7440508E+06 -0.2689865E+01  0.1564458E+07  0.6342811E+00  0.1633339E+00  0.2442309E+01  0.2162248E+06 -0.2870318E+01  0.1449484E+06 -0.2991498E+01  0.2022992E+06  0.1875593E+01  0.9777283E+05  0.2495529E+00  0.1377780E+06 -0.2652810E+01  0.7822009E+03 -0.1410566E+01
  0.9499999E+00  0.4302934E+06  0.4977238E+00  0.2312820E+06  0.1981870E+00  0.1140078E+06 -0.1053098E+01  0.8285124E+06 -0.2942054E+01  0.1543086E+07  0.5002561E+00  0.7718290E-01 -0.3451185E+00  0.2265074E+06 -0.2813166E+01  0.1609897E+06 -0.2942966E+01  0.2152974E+06  0.1883535E+01  0.1083895E+06  0.3280790E+00  0.1407217E+06 -0.2532653E+01  0.1207650E+04 -0.1399260E+01
  0.9999999E+00  0.3663211E+06  0.2914722E+00  0.2448241E+06 -0.5777650E-01  0.9579599E+05 -0.1266267E+01  0.8902599E+06  0.3085804E+01  0.1332639E+07  0.2958055E+00  0.1139191E+01  0.4229272E+00  0.2369180E+06 -0.2781794E+01  0.1765321E+06 -0.2886993E+01  0.2262727E+06  0.1912636E+01  0.1186129E+06  0.4192053E+00  0.1429003E+06 -0.2453749E+01  0.1818957E+04 -0.1400410E+01
  0.1050000E+01  0.2747268E+06 -0.1390578E+00  0.2497968E+06 -0.3348718E+00  0.7317514E+05 -0.1611219E+01  0.9235131E+06  0.2809291E+01  0.1013479E+07 -0.1333137E+00  0.8410563E+00  0.3690651E+00  0.2558567E+06 -0.2759291E+01  0.1911315E+06 -0.2825370E+01  0.2297744E+06  0.1957386E+01  0.1294753E+06  0.5164710E+00  0.1551361E+06 -0.2417361E+01  0.2692088E+04 -0.1401736E+01
  0.1100000E+01  0.2664535E+06 -0.9746004E+00  0.2481302E+06 -0.6509820E+00  0.5669758E+05 -0.2220392E+01  0.9334864E+06  0.2493631E+01  0.9979770E+06 -0.9728341E+00  0.8100825E+00 -0.1272946E+01  0.2856892E+06 -0.2692789E+01  0.2032195E+06 -0.2758895E+01  0.2245761E+06  0.1994140E+01  0.1379081E+06  0.6243766E+00  0.1823872E+06 -0.2331703E+01  0.3872724E+04 -0.1402938E+01
  0.1150000E+01  0.4237229E+06 -0.1523486E+01  0.2457891E+06 -0.1009322E+01  0.6187916E+05 -0.2941487E+01  0.9408302E+06  0.2135721E+01  0.1620468E+07 -0.1523317E+01  0.1383703E+01 -0.2211386E+01  0.3135417E+06 -0.2537586E+01  0.2125862E+06 -0.2689997E+01  0.2139556E+06  0.1988804E+01  0.1443839E+06  0.7396995E+00  0.2198687E+06 -0.2117623E+01  0.5432844E+04 -0.1402324E+01
  0.1200000E+01  0.5875224E+06 -0.1691305E+01  0.2478437E+06 -0.1387578E+01  0.7776521E+05  0.2915514E+01  0.9660699E+06  0.1757756E+01  0.2292402E+07 -0.1689975E+01  0.2943754E+01 -0.1149035E+01  0.3117325E+06 -0.2318531E+01  0.2189825E+06 -0.2620819E+01  0.2085668E+06  0.1938142E+01  0.1504923E+06  0.8534955E+00  0.2458453E+06 -0.1802759E+01  0.7539964E+04 -0.1403020E+01
  0.1250000E+01  0.6397718E+06 -0.1775175E+01  0.2508571E+06 -0.1754822E+01  0.8413552E+05  0.2639902E+01  0.9967062E+06  0.1390857E+01  0.2546489E+07 -0.1772505E+01  0.1554371E+01  0.5518814E+00  0.2719904E+06 -0.2120581E+01  0.2215689E+06 -0.2551931E+01  0.2146187E+06  0.1902605E+01  0.1534391E+06  0.9732997E+00  0.2411658E+06 -0.1465461E+01  0.1020954E+05 -0.1400881E+01
  0.1300000E+01  0.5795696E+06 -0.1891042E+01  0.2460824E+06 -0.2107838E+01  0.7842770E+05  0.2357898E+01  0.9966678E+06  0.1038496E+01  0.2352638E+07 -0.1886736E+01  0.3341890E+01 -0.5653481E+00  0.2175398E+06 -0.2022378E+01  0.2203751E+06 -0.2486920E+01  0.2218964E+06  0.1914209E+01  0.1537617E+06  0.1094445E+01  0.2157717E+06 -0.1181954E+01  0.1360180E+05 -0.1400012E+01
  0.1350000E+01  0.4454639E+06 -0.2075269E+01  0.2295381E+06 -0.2473901E+01  0.6623437E+05  0.2015620E+01  0.9475385E+06  0.6733578E+00  0.1844338E+07 -0.2068778E+01  0.3638407E+01  0.1777802E+01  0.1744657E+06 -0.2057121E+01  0.2157145E+06 -0.2428526E+01  0.2222760E+06  0.1953653E+01  0.1525289E+06  0.1208554E+01  0.1848822E+06 -0.9967108E+00  0.1789803E+05 -0.1399775E+01
  0.1400000E+01  0.2737624E+06 -0.2424203E+01  0.2049806E+06 -0.2884159E+01  0.5234849E+05  0.1576176E+01  0.8625963E+06  0.2640414E+00  0.1155820E+07 -0.2413232E+01  0.5792037E+01 -0.7182709E+00  0.1579574E+06 -0.2156760E+01  0.2085706E+06 -0.2378648E+01  0.2145375E+06  0.1998004E+01  0.1495427E+06  0.1315326E+01  0.1633436E+06 -0.9294658E+00  0.2327842E+05 -0.1398997E+01
  0.1450000E+01  0.1589799E+06  0.2895996E+01  0.1810318E+06  0.2933770E+01  0.4138846E+05  0.9945573E+00  0.7766019E+06 -0.2002691E+00  0.6776735E+06  0.2911298E+01  0.2737289E+01 -0.1201983E+01  0.1569849E+06 -0.2152484E+01  0.1994646E+06 -0.2337267E+01  0.2013406E+06  0.2026487E+01  0.1447381E+06  0.1417701E+01  0.1646137E+06 -0.9056370E+00  0.2990196E+05 -0.1398196E+01
  0.1500000E+01  0.2277701E+06  0.1897373E+01  0.1616241E+06  0.2438182E+01  0.3693573E+05  0.3230376E+00  0.7068736E+06 -0.6950611E+00  0.9903042E+06  0.1902497E+01  0.1020970E+02  0.7746356E+00  0.1478075E+06 -0.2008537E+01  0.1889710E+06 -0.2304643E+01  0.1871707E+06  0.2029332E+01  0.1383339E+06  0.1515537E+01  0.1833761E+06 -0.7987237E+00  0.3787836E+05 -0.1393366E+01
  0.1550000E+01  0.3133862E+06  0.1518830E+01  0.1441322E+06  0.1942065E+01  0.3643778E+05 -0.2804732E+00  0.6423012E+06 -0.1190176E+01  0.1394275E+07  0.1523390E+01  0.2219384E+02 -0.1343558E+01  0.1220326E+06 -0.1773105E+01  0.1778416E+06 -0.2281526E+01  0.1750320E+06  0.2016012E+01  0.1318820E+06  0.1600870E+01  0.2037371E+06 -0.6089507E+00  0.4759652E+05 -0.1390160E+01
  0.1600000E+01  0.3313824E+06  0.1293706E+01  0.1243968E+06  0.1449862E+01  0.3525529E+05 -0.7956079E+00  0.5650680E+06 -0.1681173E+01  0.1507021E+07  0.1299494E+01  0.1698491E+01 -0.4836729E+00  0.8582794E+05 -0.1451935E+01  0.1667841E+06 -0.2267736E+01  0.1650813E+06  0.2003286E+01  0.1249570E+06  0.1673389E+01  0.2167128E+06 -0.3834412E+00  0.5914687E+05 -0.1384266E+01
  0.1650000E+01  0.2871866E+06  0.1109683E+01  0.1013777E+06  0.9483072E+00  0.3183725E+05 -0.1281813E+01  0.4694297E+06 -0.2180779E+01  0.1335257E+07  0.1117506E+01  0.2036019E+02 -0.2025414E+01  0.5172317E+05 -0.8980505E+00  0.1561774E+06 -0.2259807E+01  0.1560234E+06  0.1999050E+01  0.1175826E+06  0.1740370E+01  0.2236302E+06 -0.1534246E+00  0.7273127E+05 -0.1378351E+01
  0.1700000E+01  0.2041798E+06  0.1011217E+01  0.7619453E+05  0.4098278E+00  0.2660069E+05 -0.1782836E+01  0.3592275E+06 -0.2716002E+01  0.9713824E+06  0.1021994E+01  0.8379934E+01 -0.7845793E+00  0.4195008E+05  0.1830919E+00  0.1458197E+06 -0.2255557E+01  0.1468817E+06  0.2003235E+01  0.1100291E+06  0.1799832E+01  0.2266711E+06  0.7184972E-01  0.8821659E+05 -0.1371818E+01
  0.1750000E+01  0.1039868E+06  0.1331849E+01  0.5310566E+05 -0.2252434E+00  0.2041794E+05 -0.2333550E+01  0.2543842E+06  0.2936678E+01  0.5115155E+06  0.1340072E+01  0.1237083E+02 -0.1822601E+01  0.6331262E+05  0.1014373E+01  0.1362355E+06 -0.2253154E+01  0.1370979E+06  0.2020306E+01  0.1023882E+06  0.1856171E+01  0.2225229E+06  0.2971902E+00  0.1064397E+06 -0.1368417E+01
  0.1800000E+01  0.1048642E+06  0.2875172E+01  0.3801656E+05 -0.9495670E+00  0.1480279E+05 -0.3061058E+01  0.1845006E+06  0.2216177E+01  0.5146353E+06  0.2858187E+01  0.5134505E+01 -0.2802377E+01  0.7760012E+05  0.1487257E+01  0.1271753E+06 -0.2250406E+01  0.1244012E+06  0.2054176E+01  0.9572995E+05  0.1896408E+01  0.1982332E+06  0.4654237E+00  0.1275631E+06 -0.1365959E+01
  0.1850000E+01  0.1690814E+06 -0.2730790E+01  0.2618437E+05 -0.1503312E+01  0.1397815E+05  0.2380088E+01  0.1292380E+06  0.1669638E+01  0.8391295E+06 -0.2731641E+01  0.9595417E+01 -0.2611630E+01  0.6206342E+05  0.1479883E+01  0.1189971E+06 -0.2240057E+01  0.1078606E+06  0.2062839E+01  0.8982991E+05  0.1931138E+01  0.1843124E+06  0.4000646E+00  0.1530405E+06 -0.1359757E+01
  0.1900000E+01  0.1466761E+06 -0.2360578E+01  0.9746167E+04 -0.1291532E+01  0.1389455E+05  0.1785489E+01  0.5131375E+05  0.1915837E+01  0.7439652E+06 -0.2353249E+01  0.5255770E+01 -0.3133928E+01  0.8535043E+05  0.9866163E+00  0.1104426E+06 -0.2214439E+01  0.9500453E+05  0.2024824E+01  0.8447041E+05  0.1973683E+01  0.2230269E+06  0.3855973E+00  0.1815182E+06 -0.1349939E+01
  0.1950000E+01  0.1200024E+06 -0.1799345E+01  0.1982540E+05  0.8951571E-01  0.1191219E+05  0.1248343E+01  0.1043506E+06 -0.3075145E+01  0.6247372E+06 -0.1792142E+01  0.1407472E+01 -0.5351540E+00  0.1423754E+06  0.9717611E+00  0.1005155E+06 -0.2177332E+01  0.8628391E+05  0.1990931E+01  0.7912516E+05  0.2026898E+01  0.2694956E+06  0.5304324E+00  0.2142270E+06 -0.1340201E+01
  0.2000000E+01  0.1697345E+06 -0.1201281E+01  0.3416395E+05 -0.1456915E+00  0.9030722E+04  0.7030571E+00  0.1800392E+06  0.2984180E+01  0.8967558E+06 -0.1202111E+01  0.9278400E+01 -0.1801550E+01  0.2005217E+06  0.1152685E+01  0.8982059E+05 -0.2130133E+01  0.7885513E+05  0.1991108E+01  0.7347902E+05  0.2092798E+01  0.3046809E+06  0.7551936E+00  0.2534802E+06 -0.1325441E+01
