VARIABLES="w (rad/s)"
"abs(F   1   1)" "angle(F   1   1)"
"abs(F   1   2)" "angle(F   1   2)"
"abs(F   1   3)" "angle(F   1   3)"
"abs(F   1   4)" "angle(F   1   4)"
"abs(F   1   5)" "angle(F   1   5)"
"abs(F   1   6)" "angle(F   1   6)"
"abs(F   2   1)" "angle(F   2   1)"
"abs(F   2   2)" "angle(F   2   2)"
"abs(F   2   3)" "angle(F   2   3)"
"abs(F   2   4)" "angle(F   2   4)"
"abs(F   2   5)" "angle(F   2   5)"
"abs(F   2   6)" "angle(F   2   6)"
Zone t="Diffraction force - beta =  30.000",I=    40,F=POINT
  0.5000000E-01  0.1248001E+04 -0.3124605E+01  0.7283629E+03  0.3132804E+01  0.7534855E+03  0.1584839E+01  0.2231779E+04 -0.8787895E-02  0.3824458E+04 -0.3124482E+01  0.1577427E-02  0.7897357E-02  0.6857670E+03  0.3120954E+01  0.4034525E+03  0.3141520E+01  0.1107988E+04  0.1550259E+01  0.2902785E+03 -0.1284385E-03  0.4899129E+03  0.3104513E+01  0.3083354E+00  0.3134042E+01
  0.9999999E-01  0.4999849E+04  0.3132653E+01  0.2920600E+04  0.3106444E+01  0.3056967E+04  0.1578017E+01  0.8946105E+04 -0.3514681E-01  0.1531698E+05  0.3132841E+01  0.2287869E-02 -0.3139613E+01  0.2741093E+04  0.3120663E+01  0.1614076E+04  0.3141298E+01  0.4475505E+04  0.1562729E+01  0.1159458E+04 -0.5297734E-03  0.1953787E+04  0.3103652E+01  0.1240446E+01  0.3111480E+01
  0.1500000E+00  0.1123318E+05  0.3087388E+01  0.6595963E+04  0.3062512E+01  0.6890252E+04  0.1564797E+01  0.2030505E+05 -0.7907964E-01  0.3456537E+05  0.3087276E+01  0.1806471E-02  0.1531031E-01  0.6140015E+04  0.3121787E+01  0.3650834E+04  0.3140950E+01  0.1013544E+05  0.1583755E+01  0.2638630E+04 -0.1133432E-02  0.4340011E+04  0.3106681E+01  0.1660756E+01  0.3050205E+01
  0.2000000E+00  0.1991798E+05  0.3028988E+01  0.1168309E+05  0.3001159E+01  0.1214079E+05  0.1546658E+01  0.3603358E+05 -0.1404266E+00  0.6143944E+05  0.3029216E+01  0.2825575E-01 -0.3137070E+01  0.1100367E+05  0.3119709E+01  0.6503687E+04  0.3140365E+01  0.1808467E+05  0.1606046E+01  0.4669607E+04 -0.2197772E-02  0.7816502E+04  0.3101183E+01  0.4938210E+01  0.3024823E+01
  0.2500000E+00  0.3086745E+05  0.2951119E+01  0.1817562E+05  0.2922444E+01  0.1852638E+05  0.1518152E+01  0.5628516E+05 -0.2191375E+00  0.9559295E+05  0.2951278E+01  0.1487203E-01  0.6648285E-01  0.1716824E+05  0.3119159E+01  0.1017702E+05  0.3139706E+01  0.2817578E+05  0.1634251E+01  0.7283492E+04 -0.3371663E-02  0.1212724E+05  0.3099808E+01  0.7671549E+01  0.2954607E+01
  0.3000000E+00  0.4384388E+05  0.2854063E+01  0.2605005E+05  0.2826591E+01  0.2557653E+05  0.1476705E+01  0.8116117E+05 -0.3149916E+00  0.1365454E+06  0.2853916E+01  0.5361213E-01  0.3112131E+01  0.2450576E+05  0.3121409E+01  0.1468642E+05  0.3139119E+01  0.4026750E+05  0.1665632E+01  0.1045418E+05 -0.4388983E-02  0.1696364E+05  0.3105300E+01  0.7365629E+01  0.2793510E+01
  0.3500000E+00  0.5862898E+05  0.2743289E+01  0.3525827E+05  0.2714373E+01  0.3257171E+05  0.1421397E+01  0.1104661E+06 -0.4271600E+00  0.1835369E+06  0.2743733E+01  0.1201351E+00 -0.3098903E+01  0.3322816E+05  0.3121856E+01  0.2009709E+05  0.3138238E+01  0.5393639E+05  0.1693972E+01  0.1421283E+05 -0.6060570E-02  0.2258377E+05  0.3106673E+01  0.1262218E+01 -0.4342655E+00
  0.4000001E+00  0.7549135E+05  0.2613163E+01  0.4571280E+05  0.2585728E+01  0.3888033E+05  0.1340594E+01  0.1439600E+06 -0.5557938E+00  0.2377085E+06  0.2613557E+01  0.2304371E-01 -0.2981996E+01  0.4369624E+05  0.3117134E+01  0.2626190E+05  0.3138135E+01  0.6901988E+05  0.1726127E+01  0.1839395E+05 -0.6247797E-02  0.2985465E+05  0.3093076E+01  0.1913898E+02  0.2747153E+01
  0.4500001E+00  0.9276455E+05  0.2455064E+01  0.5742953E+05  0.2441392E+01  0.4363604E+05  0.1225728E+01  0.1824495E+06 -0.7000848E+00  0.2943662E+06  0.2454976E+01  0.1119602E+00 -0.4185251E-01  0.5482211E+05  0.3127164E+01  0.3349544E+05  0.3138741E+01  0.8493786E+05  0.1757290E+01  0.2334041E+05 -0.5187126E-02  0.3644731E+05  0.3117376E+01  0.4430651E+01 -0.2739613E+01
  0.5000001E+00  0.1119878E+06  0.2278012E+01  0.7013653E+05  0.2281402E+01  0.4658767E+05  0.1061362E+01  0.2242877E+06 -0.8600339E+00  0.3579767E+06  0.2278141E+01  0.1432807E+00  0.7867500E-01  0.6806159E+05  0.3122283E+01  0.4144956E+05  0.3140887E+01  0.1015604E+06  0.1787566E+01  0.2857125E+05 -0.1326292E-02  0.4519375E+05  0.3101639E+01  0.2638287E+02  0.2583886E+01
  0.5500002E+00  0.1323802E+06  0.2066241E+01  0.8391205E+05  0.2105808E+01  0.4840230E+05  0.8256717E+00  0.2710518E+06 -0.1035534E+01  0.4272818E+06  0.2066282E+01  0.1374155E+00  0.6333517E+00  0.8266914E+05  0.3130673E+01  0.5073268E+05 -0.3138713E+01  0.1178835E+06  0.1815859E+01  0.3478223E+05  0.4929354E-02  0.5410996E+05  0.3122440E+01  0.1195765E+02 -0.1551252E+01
  0.5999997E+00  0.1565845E+06  0.1824742E+01  0.9843363E+05  0.1913307E+01  0.5127100E+05  0.5088702E+00  0.3212723E+06 -0.1227973E+01  0.5107012E+06  0.1824351E+01  0.9986337E-01 -0.2866462E+01  0.9858911E+05  0.3139646E+01  0.6077079E+05 -0.3132263E+01  0.1333689E+06  0.1843788E+01  0.4143691E+05  0.1619725E-01  0.6409622E+05  0.3136763E+01  0.1936382E+02 -0.2369342E+01
  0.6500000E+00  0.1880658E+06  0.1563740E+01  0.1135510E+06  0.1702799E+01  0.5803027E+05  0.1490044E+00  0.3740592E+06 -0.1438364E+01  0.6192170E+06  0.1562914E+01  0.1226709E+00  0.2519015E+01  0.1166438E+06 -0.3127662E+01  0.7211136E+05 -0.3122413E+01  0.1479820E+06  0.1867812E+01  0.4887615E+05  0.3329852E-01  0.7531250E+05 -0.3116998E+01  0.3739734E+02 -0.1758934E+01
  0.7000000E+00  0.2315990E+06  0.1307478E+01  0.1297042E+06  0.1473526E+01  0.7121315E+05 -0.1795887E+00  0.4328056E+06 -0.1667613E+01  0.7728818E+06  0.1306624E+01  0.5649683E-01 -0.2963479E+01  0.1368280E+06 -0.3102857E+01  0.8472352E+05 -0.3108263E+01  0.1602598E+06  0.1887960E+01  0.5742295E+05  0.5736615E-01  0.8852738E+05 -0.3072244E+01  0.8457908E+02 -0.1596997E+01
  0.7500001E+00  0.2881465E+06  0.1081155E+01  0.1471905E+06  0.1227262E+01  0.8823009E+05 -0.4337015E+00  0.4974402E+06 -0.1913832E+01  0.9744924E+06  0.1080551E+01  0.1736345E+00  0.2138227E+01  0.1580124E+06 -0.3064228E+01  0.9806323E+05 -0.3088860E+01  0.1711894E+06  0.1897192E+01  0.6597699E+05  0.9043358E-01  0.1017019E+06 -0.3002880E+01  0.1589079E+03 -0.1470044E+01
  0.8000000E+00  0.3523803E+06  0.8982403E+00  0.1666026E+06  0.9694490E+00  0.1060694E+06 -0.6205515E+00  0.5698204E+06 -0.2171504E+01  0.1206738E+07  0.8981609E+00  0.6178956E-01  0.1544123E+01  0.1801203E+06 -0.3009762E+01  0.1127636E+06 -0.3063600E+01  0.1803330E+06  0.1896514E+01  0.7588497E+05  0.1325208E+00  0.1161792E+06 -0.2906770E+01  0.2861532E+03 -0.1429905E+01
  0.8500000E+00  0.4109351E+06  0.7551384E+00  0.1883480E+06  0.7081264E+00  0.1186531E+06 -0.7660118E+00  0.6537614E+06 -0.2432675E+01  0.1428333E+07  0.7558346E+00  0.4107789E+00  0.2591120E+01  0.2007039E+06 -0.2941513E+01  0.1286756E+06 -0.3031547E+01  0.1906521E+06  0.1884283E+01  0.8646102E+05  0.1852767E+00  0.1288739E+06 -0.2784732E+01  0.4856505E+03 -0.1411924E+01
  0.9000000E+00  0.4430919E+06  0.6327771E+00  0.2110104E+06  0.4507220E+00  0.1219681E+06 -0.8989876E+00  0.7440512E+06 -0.2689866E+01  0.1564457E+07  0.6342806E+00  0.1582204E+00  0.2393437E+01  0.2162248E+06 -0.2870318E+01  0.1449485E+06 -0.2991498E+01  0.2022993E+06  0.1875594E+01  0.9777295E+05  0.2495529E+00  0.1377785E+06 -0.2652810E+01  0.7821799E+03 -0.1410554E+01
  0.9500000E+00  0.4302934E+06  0.4977233E+00  0.2312821E+06  0.1981870E+00  0.1140078E+06 -0.1053099E+01  0.8285127E+06 -0.2942054E+01  0.1543086E+07  0.5002558E+00  0.8250487E-01 -0.3943643E+00  0.2265072E+06 -0.2813166E+01  0.1609896E+06 -0.2942966E+01  0.2152975E+06  0.1883535E+01  0.1083896E+06  0.3280789E+00  0.1407221E+06 -0.2532652E+01  0.1207735E+04 -0.1399194E+01
  0.1000000E+01  0.3663209E+06  0.2914717E+00  0.2448242E+06 -0.5777653E-01  0.9579597E+05 -0.1266268E+01  0.8902606E+06  0.3085803E+01  0.1332639E+07  0.2958052E+00  0.1159721E+01  0.4110664E+00  0.2369176E+06 -0.2781794E+01  0.1765322E+06 -0.2886992E+01  0.2262728E+06  0.1912636E+01  0.1186131E+06  0.4192062E+00  0.1429002E+06 -0.2453749E+01  0.1818964E+04 -0.1400434E+01
  0.1050000E+01  0.2747269E+06 -0.1390576E+00  0.2497969E+06 -0.3348717E+00  0.7317517E+05 -0.1611220E+01  0.9235136E+06  0.2809291E+01  0.1013480E+07 -0.1333135E+00  0.8475059E+00  0.3598833E+00  0.2558562E+06 -0.2759291E+01  0.1911316E+06 -0.2825370E+01  0.2297745E+06  0.1957387E+01  0.1294755E+06  0.5164711E+00  0.1551361E+06 -0.2417363E+01  0.2692014E+04 -0.1401782E+01
  0.1100000E+01  0.2664536E+06 -0.9746009E+00  0.2481302E+06 -0.6509829E+00  0.5669761E+05 -0.2220392E+01  0.9334864E+06  0.2493630E+01  0.9979771E+06 -0.9728344E+00  0.8171365E+00 -0.1272314E+01  0.2856890E+06 -0.2692789E+01  0.2032197E+06 -0.2758894E+01  0.2245761E+06  0.1994140E+01  0.1379084E+06  0.6243757E+00  0.1823873E+06 -0.2331706E+01  0.3872779E+04 -0.1402960E+01
  0.1150000E+01  0.4237228E+06 -0.1523486E+01  0.2457891E+06 -0.1009322E+01  0.6187914E+05 -0.2941487E+01  0.9408306E+06  0.2135720E+01  0.1620468E+07 -0.1523317E+01  0.1376820E+01 -0.2207488E+01  0.3135415E+06 -0.2537586E+01  0.2125863E+06 -0.2689996E+01  0.2139557E+06  0.1988804E+01  0.1443842E+06  0.7396992E+00  0.2198692E+06 -0.2117625E+01  0.5432852E+04 -0.1402315E+01
  0.1200000E+01  0.5875221E+06 -0.1691306E+01  0.2478437E+06 -0.1387578E+01  0.7776520E+05  0.2915514E+01  0.9660702E+06  0.1757755E+01  0.2292401E+07 -0.1689976E+01  0.2940552E+01 -0.1147409E+01  0.3117323E+06 -0.2318531E+01  0.2189825E+06 -0.2620819E+01  0.2085668E+06  0.1938142E+01  0.1504925E+06  0.8534949E+00  0.2458455E+06 -0.1802761E+01  0.7539861E+04 -0.1403041E+01
  0.1250000E+01  0.6397716E+06 -0.1775175E+01  0.2508573E+06 -0.1754822E+01  0.8413551E+05  0.2639902E+01  0.9967063E+06  0.1390856E+01  0.2546488E+07 -0.1772505E+01  0.1562514E+01  0.5597007E+00  0.2719904E+06 -0.2120581E+01  0.2215690E+06 -0.2551930E+01  0.2146187E+06  0.1902606E+01  0.1534392E+06  0.9732993E+00  0.2411659E+06 -0.1465464E+01  0.1020950E+05 -0.1400889E+01
  0.1300000E+01  0.5795694E+06 -0.1891042E+01  0.2460825E+06 -0.2107838E+01  0.7842769E+05  0.2357898E+01  0.9966686E+06  0.1038496E+01  0.2352637E+07 -0.1886737E+01  0.3360783E+01 -0.5709970E+00  0.2175399E+06 -0.2022377E+01  0.2203752E+06 -0.2486919E+01  0.2218965E+06  0.1914209E+01  0.1537619E+06  0.1094446E+01  0.2157719E+06 -0.1181956E+01  0.1360171E+05 -0.1400023E+01
  0.1350000E+01  0.4454637E+06 -0.2075270E+01  0.2295382E+06 -0.2473902E+01  0.6623437E+05  0.2015619E+01  0.9475392E+06  0.6733571E+00  0.1844336E+07 -0.2068779E+01  0.3634560E+01  0.1777132E+01  0.1744658E+06 -0.2057120E+01  0.2157145E+06 -0.2428525E+01  0.2222760E+06  0.1953653E+01  0.1525288E+06  0.1208554E+01  0.1848821E+06 -0.9967127E+00  0.1789807E+05 -0.1399785E+01
  0.1400000E+01  0.2737621E+06 -0.2424205E+01  0.2049806E+06 -0.2884160E+01  0.5234846E+05  0.1576175E+01  0.8625966E+06  0.2640400E+00  0.1155819E+07 -0.2413234E+01  0.5795006E+01 -0.7173200E+00  0.1579574E+06 -0.2156758E+01  0.2085708E+06 -0.2378648E+01  0.2145374E+06  0.1998005E+01  0.1495428E+06  0.1315326E+01  0.1633436E+06 -0.9294681E+00  0.2327844E+05 -0.1398995E+01
  0.1450000E+01  0.1589799E+06  0.2895993E+01  0.1810318E+06  0.2933768E+01  0.4138843E+05  0.9945562E+00  0.7766021E+06 -0.2002713E+00  0.6776734E+06  0.2911294E+01  0.2729867E+01 -0.1203066E+01  0.1569848E+06 -0.2152482E+01  0.1994645E+06 -0.2337267E+01  0.2013405E+06  0.2026488E+01  0.1447382E+06  0.1417701E+01  0.1646135E+06 -0.9056374E+00  0.2990192E+05 -0.1398198E+01
  0.1500000E+01  0.2277698E+06  0.1897373E+01  0.1616241E+06  0.2438182E+01  0.3693575E+05  0.3230377E+00  0.7068739E+06 -0.6950610E+00  0.9903034E+06  0.1902497E+01  0.1020399E+02  0.7745978E+00  0.1478075E+06 -0.2008538E+01  0.1889710E+06 -0.2304643E+01  0.1871707E+06  0.2029333E+01  0.1383340E+06  0.1515537E+01  0.1833756E+06 -0.7987248E+00  0.3787831E+05 -0.1393371E+01
  0.1550000E+01  0.3133862E+06  0.1518829E+01  0.1441322E+06  0.1942063E+01  0.3643777E+05 -0.2804754E+00  0.6423009E+06 -0.1190178E+01  0.1394274E+07  0.1523388E+01  0.2218688E+02 -0.1343548E+01  0.1220326E+06 -0.1773104E+01  0.1778415E+06 -0.2281525E+01  0.1750319E+06  0.2016013E+01  0.1318819E+06  0.1600870E+01  0.2037367E+06 -0.6089514E+00  0.4759659E+05 -0.1390160E+01
  0.1600000E+01  0.3313824E+06  0.1293705E+01  0.1243967E+06  0.1449860E+01  0.3525527E+05 -0.7956091E+00  0.5650679E+06 -0.1681175E+01  0.1507021E+07  0.1299493E+01  0.1700578E+01 -0.4832309E+00  0.8582794E+05 -0.1451932E+01  0.1667841E+06 -0.2267735E+01  0.1650813E+06  0.2003286E+01  0.1249570E+06  0.1673390E+01  0.2167128E+06 -0.3834411E+00  0.5914708E+05 -0.1384271E+01
  0.1650000E+01  0.2871864E+06  0.1109684E+01  0.1013776E+06  0.9483082E+00  0.3183726E+05 -0.1281814E+01  0.4694301E+06 -0.2180777E+01  0.1335255E+07  0.1117507E+01  0.2036743E+02 -0.2025234E+01  0.5172265E+05 -0.8980451E+00  0.1561773E+06 -0.2259804E+01  0.1560235E+06  0.1999051E+01  0.1175828E+06  0.1740373E+01  0.2236296E+06 -0.1534216E+00  0.7273133E+05 -0.1378354E+01
  0.1700000E+01  0.2041796E+06  0.1011216E+01  0.7619442E+05  0.4098274E+00  0.2660067E+05 -0.1782837E+01  0.3592273E+06 -0.2716002E+01  0.9713815E+06  0.1021993E+01  0.8395728E+01 -0.7856603E+00  0.4195038E+05  0.1830867E+00  0.1458196E+06 -0.2255556E+01  0.1468816E+06  0.2003236E+01  0.1100291E+06  0.1799833E+01  0.2266712E+06  0.7185001E-01  0.8821662E+05 -0.1371825E+01
  0.1750000E+01  0.1039868E+06  0.1331849E+01  0.5310561E+05 -0.2252435E+00  0.2041794E+05 -0.2333549E+01  0.2543842E+06  0.2936678E+01  0.5115157E+06  0.1340072E+01  0.1237733E+02 -0.1821351E+01  0.6331262E+05  0.1014373E+01  0.1362354E+06 -0.2253153E+01  0.1370980E+06  0.2020306E+01  0.1023882E+06  0.1856173E+01  0.2225227E+06  0.2971913E+00  0.1064396E+06 -0.1368420E+01
  0.1800000E+01  0.1048641E+06  0.2875170E+01  0.3801664E+05 -0.9495663E+00  0.1480279E+05 -0.3061058E+01  0.1845010E+06  0.2216176E+01  0.5146351E+06  0.2858186E+01  0.5149036E+01 -0.2802216E+01  0.7760011E+05  0.1487256E+01  0.1271752E+06 -0.2250404E+01  0.1244013E+06  0.2054177E+01  0.9573001E+05  0.1896411E+01  0.1982332E+06  0.4654254E+00  0.1275631E+06 -0.1365958E+01
  0.1850000E+01  0.1690813E+06 -0.2730790E+01  0.2618437E+05 -0.1503309E+01  0.1397816E+05  0.2380088E+01  0.1292381E+06  0.1669641E+01  0.8391292E+06 -0.2731641E+01  0.9599085E+01 -0.2612664E+01  0.6206335E+05  0.1479885E+01  0.1189970E+06 -0.2240055E+01  0.1078606E+06  0.2062840E+01  0.8983006E+05  0.1931140E+01  0.1843120E+06  0.4000659E+00  0.1530404E+06 -0.1359759E+01
  0.1900000E+01  0.1466761E+06 -0.2360579E+01  0.9746220E+04 -0.1291520E+01  0.1389456E+05  0.1785489E+01  0.5131412E+05  0.1915841E+01  0.7439648E+06 -0.2353250E+01  0.5264309E+01 -0.3134080E+01  0.8535037E+05  0.9866143E+00  0.1104425E+06 -0.2214436E+01  0.9500469E+05  0.2024825E+01  0.8447051E+05  0.1973686E+01  0.2230268E+06  0.3855974E+00  0.1815183E+06 -0.1349941E+01
  0.1950000E+01  0.1200026E+06 -0.1799344E+01  0.1982543E+05  0.8951523E-01  0.1191219E+05  0.1248343E+01  0.1043508E+06 -0.3075144E+01  0.6247375E+06 -0.1792142E+01  0.1396365E+01 -0.5484593E+00  0.1423754E+06  0.9717602E+00  0.1005155E+06 -0.2177330E+01  0.8628395E+05  0.1990932E+01  0.7912517E+05  0.2026901E+01  0.2694957E+06  0.5304325E+00  0.2142267E+06 -0.1340201E+01
  0.2000000E+01  0.1697346E+06 -0.1201281E+01  0.3416388E+05 -0.1456883E+00  0.9030728E+04  0.7030578E+00  0.1800389E+06  0.2984181E+01  0.8967562E+06 -0.1202110E+01  0.9272783E+01 -0.1801043E+01  0.2005213E+06  0.1152685E+01  0.8982059E+05 -0.2130130E+01  0.7885532E+05  0.1991110E+01  0.7347920E+05  0.2092801E+01  0.3046808E+06  0.7551926E+00  0.2534804E+06 -0.1325440E+01
