VARIABLES="w (rad/s)"
"abs(F   1   1)" "angle(F   1   1)"
"abs(F   1   2)" "angle(F   1   2)"
"abs(F   1   3)" "angle(F   1   3)"
"abs(F   1   4)" "angle(F   1   4)"
"abs(F   1   5)" "angle(F   1   5)"
"abs(F   1   6)" "angle(F   1   6)"
"abs(F   2   1)" "angle(F   2   1)"
"abs(F   2   2)" "angle(F   2   2)"
"abs(F   2   3)" "angle(F   2   3)"
"abs(F   2   4)" "angle(F   2   4)"
"abs(F   2   5)" "angle(F   2   5)"
"abs(F   2   6)" "angle(F   2   6)"
Zone t="Excitation force - beta =  30.000",I=    40,F=POINT
  0.5000000E-01  0.2918239E+04 -0.3139402E+01  0.1692806E+04  0.3133238E+01  0.7551821E+06 -0.1579647E+01  0.5224065E+04 -0.8904891E-02  0.9006493E+04 -0.3139371E+01  0.1524720E-01  0.1457342E+01  0.1767520E+04  0.3133570E+01  0.1028054E+04  0.3141560E+01  0.9786439E+06 -0.1570773E+01  0.1325637E+04  0.1243375E-02  0.2282940E+04  0.3133651E+01  0.3473031E+00 -0.2665505E+01
  0.9999999E-01  0.1165527E+05  0.3117591E+01  0.6763683E+04  0.3106378E+01  0.7471216E+06 -0.1606282E+01  0.2088498E+05 -0.3520513E-01  0.3599270E+05  0.3117559E+01  0.2563293E-02 -0.2409427E+01  0.7059816E+04  0.3133470E+01  0.4107706E+04  0.3141489E+01  0.9715333E+06 -0.1570759E+01  0.5288964E+04 -0.5077498E-04  0.9105202E+04  0.3133453E+01  0.1242043E+01  0.3101684E+01
  0.1500000E+00  0.2611302E+05  0.3072992E+01  0.1518793E+05  0.3062307E+01  0.7337966E+06 -0.1650937E+01  0.4705498E+05 -0.7928351E-01  0.8089123E+05  0.3072873E+01  0.1848845E-02  0.7412499E+00  0.1582620E+05  0.3133909E+01  0.9243580E+04  0.3141335E+01  0.9596586E+06 -0.1570933E+01  0.1188544E+05 -0.1903330E-03  0.2035396E+05  0.3134162E+01  0.1668263E+01  0.3024058E+01
  0.2000000E+00  0.4613540E+05  0.3012711E+01  0.2682240E+05  0.3000700E+01  0.7154914E+06 -0.1714027E+01  0.8331016E+05 -0.1409143E+00  0.1433103E+06  0.3012723E+01  0.2877236E-01 -0.2631680E+01  0.2814603E+05  0.3133038E+01  0.1640174E+05  0.3141109E+01  0.9430631E+06 -0.1571472E+01  0.2099796E+05 -0.4767498E-03  0.3609345E+05  0.3132847E+01  0.4932791E+01  0.3044108E+01
  0.2500000E+00  0.7136522E+05  0.2933968E+01  0.4156154E+05  0.2921577E+01  0.6927409E+06 -0.1795969E+01  0.1295997E+06 -0.2200233E+00  0.2225521E+06  0.2933940E+01  0.1350565E-01  0.3700970E-01  0.4379788E+05  0.3132799E+01  0.2555316E+05  0.3140841E+01  0.9219655E+06 -0.1572734E+01  0.3257606E+05 -0.7414384E-03  0.5592850E+05  0.3132535E+01  0.7618924E+01  0.3001134E+01
  0.3000000E+00  0.1013516E+06  0.2836882E+01  0.5925877E+05  0.2825011E+01  0.6663393E+06 -0.1897120E+01  0.1857662E+06 -0.3165729E+00  0.3176920E+06  0.2836736E+01  0.5380167E-01 -0.2910234E+01  0.6258015E+05  0.3133689E+01  0.3667043E+05  0.3140600E+01  0.8966109E+06 -0.1575049E+01  0.4649043E+05 -0.9792056E-03  0.7937600E+05  0.3133839E+01  0.7337251E+01  0.2807328E+01
  0.3500000E+00  0.1356191E+06  0.2723834E+01  0.7971943E+05  0.2711390E+01  0.6373751E+06 -0.2017647E+01  0.2513089E+06 -0.4301942E+00  0.4274214E+06  0.2723925E+01  0.1243846E+00 -0.3104291E+01  0.8461277E+05  0.3133842E+01  0.4976625E+05  0.3140237E+01  0.8675248E+06 -0.1578435E+01  0.6264857E+05 -0.1375677E-02  0.1064773E+06  0.3134186E+01  0.1453335E+01 -0.6784127E+00
  0.4000001E+00  0.1741544E+06  0.2592446E+01  0.1026915E+06  0.2580664E+01  0.6067092E+06 -0.2156845E+01  0.3256312E+06 -0.5609243E+00  0.5522874E+06  0.2592503E+01  0.1801329E-01 -0.2468439E+01  0.1101467E+06  0.3131891E+01  0.6463166E+05  0.3140188E+01  0.8350578E+06 -0.1583583E+01  0.8074244E+05 -0.1427391E-02  0.1378419E+06  0.3131088E+01  0.1871547E+02  0.2810335E+01
  0.4500001E+00  0.2149935E+06  0.2438838E+01  0.1280072E+06  0.2433195E+01  0.5752586E+06 -0.2313296E+01  0.4091499E+06 -0.7083862E+00  0.6869729E+06  0.2438715E+01  0.1108404E+00 -0.5991990E-01  0.1379821E+06  0.3135860E+01  0.8151000E+05  0.3140421E+01  0.7999279E+06 -0.1590485E+01  0.1009550E+06 -0.1198155E-02  0.1709185E+06  0.3136429E+01  0.6067907E+01 -0.2316227E+01
  0.5000001E+00  0.2593275E+06  0.2267093E+01  0.1552000E+06  0.2269010E+01  0.5431162E+06 -0.2484888E+01  0.4997777E+06 -0.8725819E+00  0.8351569E+06  0.2267086E+01  0.1463006E+00  0.8541919E-01  0.1694183E+06  0.3133836E+01  0.9997266E+05  0.3141300E+01  0.7624428E+06 -0.1599449E+01  0.1226301E+06 -0.3063173E-03  0.2081660E+06  0.3132921E+01  0.2379321E+02  0.2799655E+01
  0.5500002E+00  0.3060211E+06  0.2070307E+01  0.1841403E+06  0.2088168E+01  0.5095098E+06 -0.2669147E+01  0.5986256E+06 -0.1053403E+01  0.9947875E+06  0.2070347E+01  0.1313749E+00  0.6551858E+00  0.2035724E+06  0.3137159E+01  0.1205385E+06 -0.3140380E+01  0.7237276E+06 -0.1610325E+01  0.1462741E+06  0.1173312E-02  0.2473603E+06  0.3137403E+01  0.2436381E+02 -0.1563089E+01
  0.5999997E+00  0.3572577E+06  0.1850373E+01  0.2142958E+06  0.1890081E+01  0.4729152E+06 -0.2864554E+01  0.7037319E+06 -0.1251486E+01  0.1173119E+07  0.1850339E+01  0.9680825E-01 -0.3021197E+01  0.2402077E+06  0.3140794E+01  0.1425340E+06 -0.3137615E+01  0.6845145E+06 -0.1623351E+01  0.1711481E+06  0.3921949E-02  0.2890109E+06  0.3140521E+01  0.4081620E+02 -0.1918475E+01
  0.6500000E+00  0.4160388E+06  0.1610860E+01  0.2453050E+06  0.1674251E+01  0.4320505E+06 -0.3072139E+01  0.8137015E+06 -0.1467313E+01  0.1379916E+07  0.1610774E+01  0.1263988E+00  0.2457350E+01  0.2799547E+06 -0.3135789E+01  0.1663971E+06 -0.3133281E+01  0.6448362E+06 -0.1638010E+01  0.1973757E+06  0.8242463E-02  0.3329173E+06 -0.3136030E+01  0.8296030E+02 -0.1655710E+01
  0.7000000E+00  0.4869944E+06  0.1361998E+01  0.2774015E+06  0.1440385E+01  0.3852653E+06  0.2985819E+01  0.9314131E+06 -0.1701176E+01  0.1635049E+07  0.1361894E+01  0.4561123E-01  0.3034334E+01  0.3225731E+06 -0.3125165E+01  0.1919742E+06 -0.3126886E+01  0.6061227E+06 -0.1653350E+01  0.2250444E+06  0.1462972E-01  0.3793847E+06 -0.3125423E+01  0.1664654E+03 -0.1584482E+01
  0.7500001E+00  0.5712591E+06  0.1117924E+01  0.3106718E+06  0.1189369E+01  0.3347195E+06  0.2730890E+01  0.1056241E+07 -0.1952193E+01  0.1942204E+07  0.1117819E+01  0.1908007E+00  0.2064348E+01  0.3666111E+06 -0.3108275E+01  0.2185822E+06 -0.3117944E+01  0.5669999E+06 -0.1667753E+01  0.2527909E+06  0.2357493E-01  0.4257034E+06 -0.3108554E+01  0.2980819E+03 -0.1517387E+01
  0.8000000E+00  0.6627388E+06  0.8904606E+00  0.3454682E+06  0.9239374E+00  0.2839378E+06  0.2426810E+01  0.1189344E+07 -0.2217626E+01  0.2281720E+07  0.8903718E+00  0.4607249E-01  0.1769491E+01  0.4115249E+06 -0.3084027E+01  0.2466938E+06 -0.3105971E+01  0.5278544E+06 -0.1680334E+01  0.2816642E+06  0.3560514E-01  0.4722005E+06 -0.3084315E+01  0.5139263E+03 -0.1492658E+01
  0.8500000E+00  0.7447859E+06  0.6809645E+00  0.3818835E+06  0.6483134E+00  0.2423577E+06  0.2056710E+01  0.1333524E+07 -0.2493241E+01  0.2600929E+07  0.6809168E+00  0.4094832E+00  0.2590577E+01  0.4542808E+06 -0.3053671E+01  0.2759691E+06 -0.3090363E+01  0.4858735E+06 -0.1692098E+01  0.3106231E+06  0.5129932E-01  0.5144568E+06 -0.3053970E+01  0.8470397E+03 -0.1480091E+01
  0.9000000E+00  0.7919906E+06  0.4751389E+00  0.4180194E+06  0.3665289E+00  0.2173669E+06  0.1636882E+01  0.1481889E+07 -0.2775021E+01  0.2807903E+07  0.4751319E+00  0.1523714E+00  0.2359452E+01  0.4909955E+06 -0.3023313E+01  0.3053244E+06 -0.3070545E+01  0.4422491E+06 -0.1708506E+01  0.3393071E+06  0.7122643E-01  0.5497384E+06 -0.3023638E+01  0.1339644E+04 -0.1477564E+01
  0.9500000E+00  0.7850312E+06  0.2418549E+00  0.4499145E+06  0.7894763E-01  0.2071375E+06  0.1227324E+01  0.1619824E+07 -0.3062595E+01  0.2826608E+07  0.2418981E+00  0.8864046E-01 -0.4681897E+00  0.5218432E+06 -0.3001126E+01  0.3338893E+06 -0.3046307E+01  0.3985392E+06 -0.1737777E+01  0.3657484E+06  0.9563670E-01  0.5768008E+06 -0.3001585E+01  0.2044775E+04 -0.1469836E+01
  0.1000000E+01  0.7282189E+06 -0.6732615E-01  0.4727273E+06 -0.2200758E+00  0.2009436E+06  0.8712854E+00  0.1728366E+07  0.2921571E+01  0.2662650E+07 -0.6724086E-01  0.1175658E+01  0.3980578E+00  0.5528174E+06 -0.2990123E+01  0.3610989E+06 -0.3018152E+01  0.3592133E+06 -0.1783557E+01  0.3896799E+06  0.1242158E+00  0.6030390E+06 -0.2990576E+01  0.3048014E+04 -0.1469486E+01
  0.1050000E+01  0.6695583E+06 -0.5134135E+00  0.4849589E+06 -0.5415398E+00  0.1878232E+06  0.5621406E+00  0.1802685E+07  0.2600129E+01  0.2488849E+07 -0.5132834E+00  0.8643462E+00  0.3422734E+00  0.5914458E+06 -0.2979501E+01  0.3862233E+06 -0.2987084E+01  0.3293431E+06 -0.1836974E+01  0.4116995E+06  0.1559313E+00  0.6386086E+06 -0.2979935E+01  0.4458475E+04 -0.1469082E+01
  0.1100000E+01  0.7079566E+06 -0.1072438E+01  0.4897509E+06 -0.8949267E+00  0.1626973E+06  0.2775306E+00  0.1852309E+07  0.2246776E+01  0.2677487E+07 -0.1072355E+01  0.8391434E+00 -0.1251702E+01  0.6363370E+06 -0.2945542E+01  0.4074264E+06 -0.2954238E+01  0.3063177E+06 -0.1876731E+01  0.4281890E+06  0.1894117E+00  0.6791251E+06 -0.2945850E+01  0.6361254E+04 -0.1468939E+01
  0.1150000E+01  0.8827051E+06 -0.1526047E+01  0.4937012E+06 -0.1278850E+01  0.1255439E+06 -0.3510991E-01  0.1900223E+07  0.1862871E+01  0.3397564E+07 -0.1525982E+01  0.1365514E+01 -0.2216979E+01  0.6680580E+06 -0.2871776E+01  0.4243379E+06 -0.2921182E+01  0.2815305E+06 -0.1884416E+01  0.4393218E+06  0.2233867E+00  0.7042389E+06 -0.2871644E+01  0.8874961E+04 -0.1467974E+01
  0.1200000E+01  0.1051315E+07 -0.1803517E+01  0.5004911E+06 -0.1679002E+01  0.8735699E+05 -0.5028040E+00  0.1961454E+07  0.1462749E+01  0.4120534E+07 -0.1803426E+01  0.2959611E+01 -0.1155273E+01  0.6563366E+06 -0.2785885E+01  0.4366512E+06 -0.2889404E+01  0.2471807E+06 -0.1878672E+01  0.4468674E+06  0.2565911E+00  0.6855314E+06 -0.2785073E+01  0.1222320E+05 -0.1467626E+01
  0.1250000E+01  0.1073306E+07 -0.2032249E+01  0.5043351E+06 -0.2082253E+01  0.6724372E+05 -0.1188237E+01  0.2013669E+07  0.1059577E+01  0.4286137E+07 -0.2032033E+01  0.1551238E+01  0.5605409E+00  0.6070488E+06 -0.2749604E+01  0.4435206E+06 -0.2860089E+01  0.2069138E+06 -0.1915464E+01  0.4478522E+06  0.2871838E+00  0.6269897E+06 -0.2749083E+01  0.1648127E+05 -0.1465871E+01
  0.1300000E+01  0.9565139E+06 -0.2316842E+01  0.4959522E+06 -0.2493489E+01  0.6448774E+05 -0.1840754E+01  0.2017666E+07  0.6484254E+00  0.3891884E+07 -0.2316386E+01  0.3355749E+01 -0.5740389E+00  0.5625176E+06 -0.2786199E+01  0.4452575E+06 -0.2835465E+01  0.1737822E+06 -0.2015204E+01  0.4433727E+06  0.3132930E+00  0.5745008E+06 -0.2786642E+01  0.2188129E+05 -0.1464962E+01
  0.1350000E+01  0.7731611E+06 -0.2722597E+01  0.4740695E+06 -0.2932115E+01  0.6365247E+05 -0.2348305E+01  0.1965277E+07  0.2098645E+00  0.3205388E+07 -0.2721942E+01  0.3645256E+01  0.1775286E+01  0.5474309E+06 -0.2855977E+01  0.4425301E+06 -0.2817052E+01  0.1531978E+06 -0.2143633E+01  0.4355764E+06  0.3336054E+00  0.5549738E+06 -0.2858078E+01  0.2868183E+05 -0.1464405E+01
  0.1400000E+01  0.6192008E+06  0.2950236E+01  0.4464465E+06  0.2870122E+01  0.5823084E+05 -0.2778319E+01  0.1886401E+07 -0.2710169E+00  0.2615665E+07  0.2951099E+01  0.5772138E+01 -0.7206861E+00  0.5557009E+06 -0.2902491E+01  0.4366177E+06 -0.2805169E+01  0.1412703E+06 -0.2251341E+01  0.4249758E+06  0.3474108E+00  0.5604934E+06 -0.2905894E+01  0.3714486E+05 -0.1463457E+01
  0.1450000E+01  0.6127476E+06  0.2204370E+01  0.4226351E+06  0.2351845E+01  0.4766026E+05  0.3087725E+01  0.1820304E+07 -0.7891760E+00  0.2637563E+07  0.2204845E+01  0.2716531E+01 -0.1200691E+01  0.5605778E+06 -0.2905418E+01  0.4281738E+06 -0.2799371E+01  0.1303246E+06 -0.2318410E+01  0.4118110E+06  0.3547505E+00  0.5623936E+06 -0.2909204E+01  0.4751977E+05 -0.1462517E+01
  0.1500000E+01  0.7131512E+06  0.1609542E+01  0.4032643E+06  0.1813776E+01  0.3454634E+05  0.2605521E+01  0.1770449E+07 -0.1327124E+01  0.3130514E+07  0.1609788E+01  0.1023707E+02  0.7761083E+00  0.5417051E+06 -0.2891876E+01  0.4178565E+06 -0.2799102E+01  0.1159589E+06 -0.2366653E+01  0.3968328E+06  0.3555042E+00  0.5399038E+06 -0.2895780E+01  0.5999990E+05 -0.1459144E+01
  0.1550000E+01  0.7764706E+06  0.1163331E+01  0.3831839E+06  0.1263346E+01  0.2365727E+05  0.1956769E+01  0.1714217E+07 -0.1877559E+01  0.3474398E+07  0.1163611E+01  0.2220247E+02 -0.1343098E+01  0.5018591E+06 -0.2901079E+01  0.4064425E+06 -0.2803575E+01  0.9953570E+05 -0.2429960E+01  0.3821236E+06  0.3522103E+00  0.4975749E+06 -0.2905183E+01  0.7508020E+05 -0.1456659E+01
  0.1600000E+01  0.7398334E+06  0.7460123E+00  0.3591489E+06  0.6927449E+00  0.1832227E+05  0.1134426E+01  0.1637172E+07 -0.2448130E+01  0.3374364E+07  0.7466032E+00  0.1682312E+01 -0.4804901E+00  0.4584446E+06 -0.2954610E+01  0.3944985E+06 -0.2811439E+01  0.8454036E+05 -0.2529481E+01  0.3677108E+06  0.3448306E+00  0.4529318E+06 -0.2961621E+01  0.9293238E+05 -0.1452494E+01
  0.1650000E+01  0.6218726E+06  0.2720577E+00  0.3325550E+06  0.9139329E-01  0.1710360E+05  0.3542823E+00  0.1544373E+07 -0.3049394E+01  0.2889863E+07  0.2733849E+00  0.2039341E+02 -0.2023946E+01  0.4251288E+06 -0.3046295E+01  0.3819728E+06 -0.2820506E+01  0.7296739E+05 -0.2663740E+01  0.3528288E+06  0.3346911E+00  0.4192217E+06 -0.3059982E+01  0.1138571E+06 -0.1448318E+01
  0.1700000E+01  0.4686736E+06 -0.3413244E+00  0.3072998E+06 -0.5480836E+00  0.1634084E+05 -0.2774145E+00  0.1453229E+07  0.2594246E+01  0.2215920E+07 -0.3395722E+00  0.8405485E+01 -0.7863275E+00  0.4061174E+06  0.3122785E+01  0.3684518E+06 -0.2830030E+01  0.6495973E+05 -0.2816447E+01  0.3378354E+06  0.3227582E+00  0.4018358E+06  0.3101087E+01  0.1378054E+06 -0.1443923E+01
  0.1750000E+01  0.3636303E+06 -0.1272568E+01  0.2884749E+06 -0.1219601E+01  0.1439364E+05 -0.8014052E+00  0.1388833E+07  0.1922586E+01  0.1748018E+07 -0.1272049E+01  0.1241291E+02 -0.1821368E+01  0.4064019E+06  0.3008917E+01  0.3542030E+06 -0.2838469E+01  0.6055670E+05 -0.2961039E+01  0.3222686E+06  0.3097923E+00  0.4054440E+06  0.2980173E+01  0.1657166E+06 -0.1441335E+01
  0.1800000E+01  0.4714164E+06 -0.2236964E+01  0.2751714E+06 -0.1895019E+01  0.1012366E+05 -0.1269941E+01  0.1348268E+07  0.1246987E+01  0.2310029E+07 -0.2237964E+01  0.5158742E+01 -0.2805538E+01  0.4230906E+06  0.2957786E+01  0.3388658E+06 -0.2845366E+01  0.5813664E+05 -0.3036944E+01  0.3073753E+06  0.2995380E+00  0.4271867E+06  0.2931792E+01  0.1978140E+06 -0.1439246E+01
  0.1850000E+01  0.5935068E+06 -0.2680677E+01  0.2568535E+06 -0.2567241E+01  0.5112713E+04 -0.2169766E+01  0.1280304E+07  0.5746630E+00  0.2961972E+07 -0.2680806E+01  0.9614588E+01 -0.2614084E+01  0.4050392E+06  0.2988399E+01  0.3223016E+06 -0.2847821E+01  0.5116729E+05 -0.3050765E+01  0.2918396E+06  0.2921773E+00  0.4103602E+06  0.2965755E+01  0.2355523E+06 -0.1434275E+01
  0.1900000E+01  0.5048651E+06 -0.3082144E+01  0.2305046E+06  0.2998239E+01  0.5382304E+04  0.2866664E+01  0.1168171E+07 -0.1432481E+00  0.2561881E+07 -0.3081006E+01  0.5274981E+01 -0.3136143E+01  0.3472156E+06  0.2935079E+01  0.3031413E+06 -0.2845870E+01  0.4167237E+05  0.3127219E+01  0.2744712E+06  0.2870414E+00  0.3530282E+06  0.2901687E+01  0.2775899E+06 -0.1427054E+01
  0.1950000E+01  0.3302287E+06  0.2578074E+01  0.2123283E+06  0.2204547E+01  0.6141513E+04  0.2178563E+01  0.1093671E+07 -0.9374077E+00  0.1699855E+07  0.2579913E+01  0.1394478E+01 -0.5264535E+00  0.3085885E+06  0.2750671E+01  0.2811098E+06 -0.2843407E+01  0.3595902E+05  0.2934931E+01  0.2553171E+06  0.2819494E+00  0.3204746E+06  0.2702155E+01  0.3251909E+06 -0.1419654E+01
  0.2000000E+01  0.2147970E+06  0.1303304E+01  0.2083722E+06  0.1420559E+01  0.5770124E+04  0.1660161E+01  0.1090740E+07 -0.1721820E+01  0.1120839E+07  0.1300361E+01  0.9257574E+01 -0.1796886E+01  0.3187286E+06  0.2529069E+01  0.2571113E+06 -0.2840977E+01  0.3451212E+05  0.2771597E+01  0.2346401E+06  0.2749007E+00  0.3420778E+06  0.2484906E+01  0.3805313E+06 -0.1408279E+01
