VARIABLES="w (rad/s)"
"abs(F   1   1)" "angle(F   1   1)"
"abs(F   1   2)" "angle(F   1   2)"
"abs(F   1   3)" "angle(F   1   3)"
"abs(F   1   4)" "angle(F   1   4)"
"abs(F   1   5)" "angle(F   1   5)"
"abs(F   1   6)" "angle(F   1   6)"
"abs(F   2   7)" "angle(F   2   7)"
"abs(F   2   8)" "angle(F   2   8)"
"abs(F   2   9)" "angle(F   2   9)"
"abs(F   2  10)" "angle(F   2  10)"
"abs(F   2  11)" "angle(F   2  11)"
"abs(F   2  12)" "angle(F   2  12)"
Zone t="Excitation force - beta =  30.000",I=    40,F=POINT
  0.5000000E-01  0.2918238E+04 -0.3139425E+01  0.1692806E+04  0.3133227E+01  0.7551821E+06 -0.1579647E+01  0.5224065E+04 -0.8904596E-02  0.9006495E+04 -0.3139363E+01  0.5004269E-02  0.1190715E+01  0.1767521E+04  0.3133570E+01  0.1028054E+04  0.3141494E+01  0.9786438E+06 -0.1570773E+01  0.1325637E+04  0.1228093E-02  0.2282938E+04  0.3133659E+01  0.3650064E+00 -0.2576957E+01
  0.9999999E-01  0.1165527E+05  0.3117591E+01  0.6763680E+04  0.3106394E+01  0.7471216E+06 -0.1606282E+01  0.2088499E+05 -0.3520121E-01  0.3599271E+05  0.3117562E+01  0.7626053E-02  0.1856543E+01  0.7059819E+04  0.3133464E+01  0.4107706E+04  0.3141473E+01  0.9715332E+06 -0.1570759E+01  0.5288964E+04 -0.3679270E-04  0.9105197E+04  0.3133454E+01  0.1264076E+01  0.2957323E+01
  0.1500000E+00  0.2611302E+05  0.3072997E+01  0.1518792E+05  0.3062310E+01  0.7337966E+06 -0.1650937E+01  0.4705493E+05 -0.7928112E-01  0.8089124E+05  0.3072872E+01  0.1459870E-01  0.1555248E+01  0.1582619E+05  0.3133910E+01  0.9243579E+04  0.3141341E+01  0.9596586E+06 -0.1570933E+01  0.1188544E+05 -0.1904371E-03  0.2035394E+05  0.3134163E+01  0.1667444E+01  0.3024597E+01
  0.2000000E+00  0.4613540E+05  0.3012711E+01  0.2682235E+05  0.3000699E+01  0.7154914E+06 -0.1714027E+01  0.8331005E+05 -0.1409190E+00  0.1433103E+06  0.3012724E+01  0.2886319E-01  0.3100742E+01  0.2814602E+05  0.3133039E+01  0.1640172E+05  0.3141106E+01  0.9430631E+06 -0.1571472E+01  0.2099794E+05 -0.4709891E-03  0.3609343E+05  0.3132845E+01  0.4910546E+01  0.3073373E+01
  0.2500000E+00  0.7136524E+05  0.2933967E+01  0.4156150E+05  0.2921576E+01  0.6927409E+06 -0.1795969E+01  0.1295997E+06 -0.2200241E+00  0.2225521E+06  0.2933939E+01  0.1060033E-01  0.3627301E+00  0.4379790E+05  0.3132800E+01  0.2555316E+05  0.3140840E+01  0.9219653E+06 -0.1572734E+01  0.3257606E+05 -0.7415246E-03  0.5592848E+05  0.3132535E+01  0.7657910E+01  0.2970899E+01
  0.3000000E+00  0.1013516E+06  0.2836883E+01  0.5925877E+05  0.2825011E+01  0.6663393E+06 -0.1897120E+01  0.1857662E+06 -0.3165730E+00  0.3176921E+06  0.2836736E+01  0.5168936E-01 -0.2982996E+01  0.6258017E+05  0.3133690E+01  0.3667041E+05  0.3140601E+01  0.8966109E+06 -0.1575049E+01  0.4649041E+05 -0.9819735E-03  0.7937595E+05  0.3133838E+01  0.7332753E+01  0.2807276E+01
  0.3500000E+00  0.1356192E+06  0.2723835E+01  0.7971941E+05  0.2711390E+01  0.6373750E+06 -0.2017647E+01  0.2513088E+06 -0.4301933E+00  0.4274213E+06  0.2723925E+01  0.1216186E+00  0.3117062E+01  0.8461282E+05  0.3133842E+01  0.4976626E+05  0.3140238E+01  0.8675248E+06 -0.1578435E+01  0.6264857E+05 -0.1373882E-02  0.1064772E+06  0.3134186E+01  0.1495128E+01 -0.6971648E+00
  0.4000001E+00  0.1741544E+06  0.2592446E+01  0.1026915E+06  0.2580663E+01  0.6067092E+06 -0.2156845E+01  0.3256312E+06 -0.5609252E+00  0.5522874E+06  0.2592503E+01  0.1952930E-01 -0.2508718E+01  0.1101468E+06  0.3131890E+01  0.6463165E+05  0.3140188E+01  0.8350578E+06 -0.1583583E+01  0.8074239E+05 -0.1427804E-02  0.1378419E+06  0.3131087E+01  0.1875142E+02  0.2800227E+01
  0.4499998E+00  0.2149934E+06  0.2438838E+01  0.1280072E+06  0.2433196E+01  0.5752587E+06 -0.2313296E+01  0.4091498E+06 -0.7083866E+00  0.6869729E+06  0.2438715E+01  0.1096027E+00 -0.1719463E+00  0.1379823E+06  0.3135859E+01  0.8150994E+05  0.3140421E+01  0.7999281E+06 -0.1590485E+01  0.1009549E+06 -0.1201403E-02  0.1709185E+06  0.3136429E+01  0.6065760E+01 -0.2314388E+01
  0.5000001E+00  0.2593275E+06  0.2267093E+01  0.1551999E+06  0.2269009E+01  0.5431162E+06 -0.2484888E+01  0.4997772E+06 -0.8725825E+00  0.8351569E+06  0.2267086E+01  0.1418331E+00  0.7063295E-01  0.1694187E+06  0.3133835E+01  0.9997265E+05  0.3141300E+01  0.7624421E+06 -0.1599449E+01  0.1226300E+06 -0.3067804E-03  0.2081660E+06  0.3132921E+01  0.2381050E+02  0.2797657E+01
  0.5500002E+00  0.3060212E+06  0.2070307E+01  0.1841403E+06  0.2088169E+01  0.5095097E+06 -0.2669147E+01  0.5986255E+06 -0.1053404E+01  0.9947877E+06  0.2070347E+01  0.1363638E+00  0.6969017E+00  0.2035727E+06  0.3137158E+01  0.1205385E+06 -0.3140380E+01  0.7237277E+06 -0.1610324E+01  0.1462741E+06  0.1172973E-02  0.2473605E+06  0.3137401E+01  0.2436044E+02 -0.1564250E+01
  0.5999997E+00  0.3572578E+06  0.1850373E+01  0.2142960E+06  0.1890081E+01  0.4729152E+06 -0.2864554E+01  0.7037320E+06 -0.1251485E+01  0.1173120E+07  0.1850338E+01  0.9678057E-01 -0.3085119E+01  0.2402077E+06  0.3140794E+01  0.1425341E+06 -0.3137615E+01  0.6845146E+06 -0.1623351E+01  0.1711481E+06  0.3922423E-02  0.2890108E+06  0.3140521E+01  0.4089711E+02 -0.1919511E+01
  0.6500000E+00  0.4160390E+06  0.1610860E+01  0.2453051E+06  0.1674250E+01  0.4320504E+06 -0.3072139E+01  0.8137013E+06 -0.1467313E+01  0.1379916E+07  0.1610774E+01  0.1306392E+00  0.2447004E+01  0.2799548E+06 -0.3135788E+01  0.1663972E+06 -0.3133281E+01  0.6448366E+06 -0.1638010E+01  0.1973757E+06  0.8242918E-02  0.3329172E+06 -0.3136031E+01  0.8307486E+02 -0.1655757E+01
  0.6999999E+00  0.4869944E+06  0.1361999E+01  0.2774014E+06  0.1440386E+01  0.3852654E+06  0.2985819E+01  0.9314131E+06 -0.1701176E+01  0.1635049E+07  0.1361894E+01  0.5201703E-01  0.3020439E+01  0.3225732E+06 -0.3125165E+01  0.1919742E+06 -0.3126886E+01  0.6061228E+06 -0.1653350E+01  0.2250443E+06  0.1463046E-01  0.3793843E+06 -0.3125423E+01  0.1664285E+03 -0.1584650E+01
  0.7500000E+00  0.5712591E+06  0.1117925E+01  0.3106718E+06  0.1189370E+01  0.3347195E+06  0.2730890E+01  0.1056240E+07 -0.1952193E+01  0.1942204E+07  0.1117820E+01  0.1743004E+00  0.1996381E+01  0.3666112E+06 -0.3108275E+01  0.2185822E+06 -0.3117944E+01  0.5669999E+06 -0.1667753E+01  0.2527910E+06  0.2357522E-01  0.4257031E+06 -0.3108554E+01  0.2981120E+03 -0.1517282E+01
  0.8000000E+00  0.6627391E+06  0.8904611E+00  0.3454681E+06  0.9239380E+00  0.2839378E+06  0.2426809E+01  0.1189343E+07 -0.2217625E+01  0.2281720E+07  0.8903722E+00  0.4498817E-01  0.1625091E+01  0.4115247E+06 -0.3084027E+01  0.2466937E+06 -0.3105971E+01  0.5278546E+06 -0.1680334E+01  0.2816640E+06  0.3560586E-01  0.4721999E+06 -0.3084315E+01  0.5139943E+03 -0.1492682E+01
  0.8500000E+00  0.7447859E+06  0.6809650E+00  0.3818835E+06  0.6483136E+00  0.2423578E+06  0.2056710E+01  0.1333524E+07 -0.2493241E+01  0.2600930E+07  0.6809174E+00  0.4076868E+00  0.2625028E+01  0.4542807E+06 -0.3053671E+01  0.2759691E+06 -0.3090363E+01  0.4858734E+06 -0.1692097E+01  0.3106231E+06  0.5129953E-01  0.5144563E+06 -0.3053970E+01  0.8469261E+03 -0.1480020E+01
  0.8999999E+00  0.7919902E+06  0.4751397E+00  0.4180192E+06  0.3665293E+00  0.2173668E+06  0.1636883E+01  0.1481889E+07 -0.2775020E+01  0.2807902E+07  0.4751327E+00  0.1751639E+00  0.2388600E+01  0.4909954E+06 -0.3023313E+01  0.3053243E+06 -0.3070545E+01  0.4422492E+06 -0.1708506E+01  0.3393070E+06  0.7122606E-01  0.5497380E+06 -0.3023638E+01  0.1339754E+04 -0.1477585E+01
  0.9499999E+00  0.7850313E+06  0.2418554E+00  0.4499144E+06  0.7894788E-01  0.2071376E+06  0.1227323E+01  0.1619823E+07 -0.3062595E+01  0.2826607E+07  0.2418985E+00  0.8239429E-01 -0.2728750E+00  0.5218434E+06 -0.3001126E+01  0.3338893E+06 -0.3046307E+01  0.3985393E+06 -0.1737777E+01  0.3657482E+06  0.9563654E-01  0.5768005E+06 -0.3001585E+01  0.2044951E+04 -0.1469856E+01
  0.9999999E+00  0.7282191E+06 -0.6732548E-01  0.4727272E+06 -0.2200756E+00  0.2009436E+06  0.8712851E+00  0.1728365E+07  0.2921571E+01  0.2662649E+07 -0.6724030E-01  0.1149999E+01  0.4176558E+00  0.5528177E+06 -0.2990123E+01  0.3610989E+06 -0.3018152E+01  0.3592135E+06 -0.1783557E+01  0.3896798E+06  0.1242153E+00  0.6030390E+06 -0.2990576E+01  0.3048017E+04 -0.1469467E+01
  0.1050000E+01  0.6695582E+06 -0.5134137E+00  0.4849588E+06 -0.5415397E+00  0.1878232E+06  0.5621407E+00  0.1802684E+07  0.2600129E+01  0.2488848E+07 -0.5132836E+00  0.8547958E+00  0.3483074E+00  0.5914462E+06 -0.2979501E+01  0.3862232E+06 -0.2987084E+01  0.3293432E+06 -0.1836974E+01  0.4116993E+06  0.1559313E+00  0.6386082E+06 -0.2979935E+01  0.4458410E+04 -0.1469048E+01
  0.1100000E+01  0.7079566E+06 -0.1072437E+01  0.4897507E+06 -0.8949257E+00  0.1626973E+06  0.2775318E+00  0.1852308E+07  0.2246777E+01  0.2677487E+07 -0.1072355E+01  0.8227931E+00 -0.1254042E+01  0.6363372E+06 -0.2945541E+01  0.4074263E+06 -0.2954238E+01  0.3063177E+06 -0.1876731E+01  0.4281886E+06  0.1894117E+00  0.6791245E+06 -0.2945849E+01  0.6361193E+04 -0.1468928E+01
  0.1150000E+01  0.8827052E+06 -0.1526048E+01  0.4937012E+06 -0.1278850E+01  0.1255439E+06 -0.3510970E-01  0.1900222E+07  0.1862871E+01  0.3397564E+07 -0.1525982E+01  0.1363341E+01 -0.2211576E+01  0.6680582E+06 -0.2871775E+01  0.4243378E+06 -0.2921183E+01  0.2815304E+06 -0.1884416E+01  0.4393215E+06  0.2233867E+00  0.7042382E+06 -0.2871644E+01  0.8874988E+04 -0.1467979E+01
  0.1200000E+01  0.1051316E+07 -0.1803517E+01  0.5004912E+06 -0.1679001E+01  0.8735689E+05 -0.5028036E+00  0.1961454E+07  0.1462750E+01  0.4120535E+07 -0.1803425E+01  0.2957551E+01 -0.1157266E+01  0.6563368E+06 -0.2785885E+01  0.4366512E+06 -0.2889404E+01  0.2471806E+06 -0.1878672E+01  0.4468673E+06  0.2565915E+00  0.6855310E+06 -0.2785072E+01  0.1222320E+05 -0.1467613E+01
  0.1250000E+01  0.1073306E+07 -0.2032249E+01  0.5043350E+06 -0.2082253E+01  0.6724364E+05 -0.1188238E+01  0.2013669E+07  0.1059577E+01  0.4286138E+07 -0.2032033E+01  0.1546386E+01  0.5530216E+00  0.6070487E+06 -0.2749604E+01  0.4435205E+06 -0.2860090E+01  0.2069136E+06 -0.1915464E+01  0.4478521E+06  0.2871837E+00  0.6269890E+06 -0.2749082E+01  0.1648128E+05 -0.1465865E+01
  0.1300000E+01  0.9565141E+06 -0.2316841E+01  0.4959520E+06 -0.2493489E+01  0.6448776E+05 -0.1840754E+01  0.2017666E+07  0.6484258E+00  0.3891885E+07 -0.2316385E+01  0.3326430E+01 -0.5725722E+00  0.5625176E+06 -0.2786199E+01  0.4452575E+06 -0.2835465E+01  0.1737821E+06 -0.2015203E+01  0.4433727E+06  0.3132924E+00  0.5745002E+06 -0.2786642E+01  0.2188137E+05 -0.1464956E+01
  0.1350000E+01  0.7731614E+06 -0.2722595E+01  0.4740695E+06 -0.2932113E+01  0.6365254E+05 -0.2348302E+01  0.1965277E+07  0.2098655E+00  0.3205390E+07 -0.2721939E+01  0.3640596E+01  0.1774935E+01  0.5474311E+06 -0.2855977E+01  0.4425299E+06 -0.2817052E+01  0.1531978E+06 -0.2143632E+01  0.4355764E+06  0.3336056E+00  0.5549734E+06 -0.2858078E+01  0.2868168E+05 -0.1464400E+01
  0.1400000E+01  0.6192006E+06  0.2950238E+01  0.4464464E+06  0.2870123E+01  0.5823089E+05 -0.2778318E+01  0.1886401E+07 -0.2710155E+00  0.2615664E+07  0.2951100E+01  0.5781854E+01 -0.7165107E+00  0.5557011E+06 -0.2902491E+01  0.4366176E+06 -0.2805169E+01  0.1412701E+06 -0.2251341E+01  0.4249757E+06  0.3474106E+00  0.5604929E+06 -0.2905894E+01  0.3714487E+05 -0.1463458E+01
  0.1450000E+01  0.6127474E+06  0.2204372E+01  0.4226351E+06  0.2351847E+01  0.4766029E+05  0.3087726E+01  0.1820304E+07 -0.7891749E+00  0.2637562E+07  0.2204847E+01  0.2734047E+01 -0.1199609E+01  0.5605779E+06 -0.2905419E+01  0.4281740E+06 -0.2799371E+01  0.1303245E+06 -0.2318409E+01  0.4118111E+06  0.3547504E+00  0.5623936E+06 -0.2909203E+01  0.4751978E+05 -0.1462515E+01
  0.1500000E+01  0.7131514E+06  0.1609542E+01  0.4032643E+06  0.1813776E+01  0.3454635E+05  0.2605522E+01  0.1770449E+07 -0.1327124E+01  0.3130514E+07  0.1609788E+01  0.1024287E+02  0.7765707E+00  0.5417049E+06 -0.2891877E+01  0.4178567E+06 -0.2799102E+01  0.1159589E+06 -0.2366653E+01  0.3968327E+06  0.3555042E+00  0.5399034E+06 -0.2895779E+01  0.5999998E+05 -0.1459141E+01
  0.1550000E+01  0.7764709E+06  0.1163333E+01  0.3831839E+06  0.1263348E+01  0.2365728E+05  0.1956771E+01  0.1714218E+07 -0.1877556E+01  0.3474400E+07  0.1163613E+01  0.2219693E+02 -0.1343641E+01  0.5018592E+06 -0.2901079E+01  0.4064427E+06 -0.2803575E+01  0.9953555E+05 -0.2429960E+01  0.3821237E+06  0.3522104E+00  0.4975744E+06 -0.2905183E+01  0.7508002E+05 -0.1456658E+01
  0.1600000E+01  0.7398336E+06  0.7460142E+00  0.3591490E+06  0.6927472E+00  0.1832226E+05  0.1134429E+01  0.1637171E+07 -0.2448127E+01  0.3374364E+07  0.7466052E+00  0.1716935E+01 -0.4833305E+00  0.4584448E+06 -0.2954611E+01  0.3944986E+06 -0.2811439E+01  0.8454038E+05 -0.2529480E+01  0.3677110E+06  0.3448305E+00  0.4529319E+06 -0.2961621E+01  0.9293209E+05 -0.1452491E+01
  0.1650000E+01  0.6218732E+06  0.2720584E+00  0.3325551E+06  0.9139419E-01  0.1710364E+05  0.3542823E+00  0.1544373E+07 -0.3049393E+01  0.2889866E+07  0.2733859E+00  0.2035719E+02 -0.2025727E+01  0.4251288E+06 -0.3046293E+01  0.3819731E+06 -0.2820507E+01  0.7296727E+05 -0.2663738E+01  0.3528291E+06  0.3346904E+00  0.4192212E+06 -0.3059979E+01  0.1138570E+06 -0.1448316E+01
  0.1700000E+01  0.4686738E+06 -0.3413216E+00  0.3072999E+06 -0.5480819E+00  0.1634082E+05 -0.2774127E+00  0.1453228E+07  0.2594249E+01  0.2215920E+07 -0.3395694E+00  0.8399279E+01 -0.7837385E+00  0.4061178E+06  0.3122784E+01  0.3684520E+06 -0.2830030E+01  0.6495971E+05 -0.2816446E+01  0.3378357E+06  0.3227580E+00  0.4018358E+06  0.3101087E+01  0.1378052E+06 -0.1443920E+01
  0.1750000E+01  0.3636304E+06 -0.1272568E+01  0.2884749E+06 -0.1219601E+01  0.1439363E+05 -0.8014049E+00  0.1388833E+07  0.1922586E+01  0.1748018E+07 -0.1272050E+01  0.1240424E+02 -0.1822563E+01  0.4064020E+06  0.3008917E+01  0.3542032E+06 -0.2838469E+01  0.6055667E+05 -0.2961039E+01  0.3222688E+06  0.3097925E+00  0.4054437E+06  0.2980174E+01  0.1657167E+06 -0.1441333E+01
  0.1800000E+01  0.4714166E+06 -0.2236964E+01  0.2751714E+06 -0.1895020E+01  0.1012366E+05 -0.1269940E+01  0.1348268E+07  0.1246987E+01  0.2310030E+07 -0.2237964E+01  0.5142415E+01 -0.2805234E+01  0.4230907E+06  0.2957786E+01  0.3388659E+06 -0.2845367E+01  0.5813653E+05 -0.3036943E+01  0.3073755E+06  0.2995379E+00  0.4271862E+06  0.2931793E+01  0.1978141E+06 -0.1439246E+01
  0.1850000E+01  0.5935069E+06 -0.2680677E+01  0.2568535E+06 -0.2567242E+01  0.5112717E+04 -0.2169766E+01  0.1280305E+07  0.5746629E+00  0.2961972E+07 -0.2680806E+01  0.9614738E+01 -0.2612873E+01  0.4050391E+06  0.2988398E+01  0.3223018E+06 -0.2847821E+01  0.5116717E+05 -0.3050765E+01  0.2918398E+06  0.2921768E+00  0.4103597E+06  0.2965755E+01  0.2355524E+06 -0.1434274E+01
  0.1900000E+01  0.5048650E+06 -0.3082144E+01  0.2305047E+06  0.2998239E+01  0.5382297E+04  0.2866665E+01  0.1168171E+07 -0.1432483E+00  0.2561881E+07 -0.3081006E+01  0.5263522E+01 -0.3135621E+01  0.3472157E+06  0.2935078E+01  0.3031416E+06 -0.2845870E+01  0.4167219E+05  0.3127220E+01  0.2744715E+06  0.2870412E+00  0.3530280E+06  0.2901687E+01  0.2775898E+06 -0.1427053E+01
  0.1950000E+01  0.3302288E+06  0.2578073E+01  0.2123283E+06  0.2204547E+01  0.6141508E+04  0.2178562E+01  0.1093671E+07 -0.9374075E+00  0.1699856E+07  0.2579913E+01  0.1404628E+01 -0.5178526E+00  0.3085886E+06  0.2750671E+01  0.2811101E+06 -0.2843406E+01  0.3595889E+05  0.2934930E+01  0.2553173E+06  0.2819495E+00  0.3204745E+06  0.2702155E+01  0.3251912E+06 -0.1419655E+01
  0.2000000E+01  0.2147970E+06  0.1303305E+01  0.2083721E+06  0.1420559E+01  0.5770115E+04  0.1660161E+01  0.1090740E+07 -0.1721820E+01  0.1120839E+07  0.1300362E+01  0.9265157E+01 -0.1797739E+01  0.3187287E+06  0.2529068E+01  0.2571115E+06 -0.2840977E+01  0.3451189E+05  0.2771598E+01  0.2346404E+06  0.2749002E+00  0.3420781E+06  0.2484905E+01  0.3805311E+06 -0.1408280E+01
