VARIABLES="w (rad/s)"
"abs(F   1   1)" "angle(F   1   1)"
"abs(F   1   2)" "angle(F   1   2)"
"abs(F   1   3)" "angle(F   1   3)"
"abs(F   1   4)" "angle(F   1   4)"
"abs(F   1   5)" "angle(F   1   5)"
"abs(F   1   6)" "angle(F   1   6)"
"abs(F   2   7)" "angle(F   2   7)"
"abs(F   2   8)" "angle(F   2   8)"
"abs(F   2   9)" "angle(F   2   9)"
"abs(F   2  10)" "angle(F   2  10)"
"abs(F   2  11)" "angle(F   2  11)"
"abs(F   2  12)" "angle(F   2  12)"
Zone t="FKforce - beta =  30.000",I=    40,F=POINT
  0.5000000E-01  0.1670476E+04  0.3132689E+01  0.9644435E+03  0.3133547E+01  0.7559354E+06 -0.1579624E+01  0.2992287E+04 -0.8991499E-02  0.5182771E+04  0.3132841E+01  0.4646134E-02  0.1514114E+01  0.1081842E+04  0.3141567E+01  0.6246019E+03  0.3141477E+01  0.9797515E+06 -0.1570796E+01  0.1035359E+04  0.1609120E-02  0.1793291E+04 -0.3141564E+01  0.1976321E+00 -0.1572412E+01
  0.1000000E+00  0.6656409E+04  0.3106278E+01  0.3843081E+04  0.3106356E+01  0.7501758E+06 -0.1606108E+01  0.1193889E+05 -0.3524202E-01  0.2067882E+05  0.3106245E+01  0.7327115E-02  0.1542679E+01  0.4319091E+04  0.3141588E+01  0.2493630E+04  0.3141587E+01  0.9760086E+06 -0.1570796E+01  0.4129505E+04  0.1016882E-03  0.7152519E+04 -0.3141591E+01  0.1947114E+00  0.1580521E+01
  0.1500000E+00  0.1488188E+05  0.3062134E+01  0.8591966E+04  0.3062155E+01  0.7406681E+06 -0.1650248E+01  0.2674991E+05 -0.7943401E-01  0.4633213E+05  0.3062127E+01  0.1471267E-01  0.1664273E+01  0.9686923E+04 -0.3141592E+01  0.5592745E+04 -0.3141589E+01  0.9697932E+06 -0.1570796E+01  0.9246812E+04  0.7857438E-04  0.1601603E+05 -0.3141575E+01  0.4209653E-01  0.1641219E+01
  0.2000000E+00  0.2622206E+05  0.3000348E+01  0.1513930E+05  0.3000345E+01  0.7275476E+06 -0.1712044E+01  0.4727659E+05 -0.1412941E+00  0.8188545E+05  0.3000350E+01  0.1472770E-02  0.1467004E+01  0.1714395E+05 -0.3141590E+01  0.9898062E+04 -0.3141592E+01  0.9611363E+06 -0.1570796E+01  0.1632836E+05  0.2296617E-04  0.2828195E+05 -0.3141591E+01  0.2401587E+00 -0.1590454E+01
  0.2500000E+00  0.4050577E+05  0.2920897E+01  0.2338589E+05  0.2920902E+01  0.7109994E+06 -0.1791496E+01  0.7331462E+05 -0.2207050E+00  0.1269843E+06  0.2920887E+01  0.6625900E-02  0.2599593E+01  0.2663227E+05  0.3141593E+01  0.1537615E+05  0.3141591E+01  0.9500826E+06 -0.1570796E+01  0.2529260E+05  0.1598479E-04  0.4380954E+05 -0.3141592E+01  0.1257618E+00 -0.1636757E+01
  0.3000000E+00  0.5751913E+05  0.2823788E+01  0.3320880E+05  0.2823772E+01  0.6912543E+06 -0.1888604E+01  0.1046053E+06 -0.3177997E+00  0.1811819E+06  0.2823788E+01  0.1055767E-01 -0.1247218E+01  0.3807742E+05  0.3141593E+01  0.2198402E+05  0.3141591E+01  0.9366893E+06 -0.1570796E+01  0.3603632E+05  0.6503854E-05  0.6242113E+05 -0.3141592E+01  0.1078503E+00 -0.1629261E+01
  0.3500000E+00  0.7700969E+05  0.2709024E+01  0.4446142E+05  0.2709024E+01  0.6685845E+06 -0.2003368E+01  0.1408436E+06 -0.4325727E+00  0.2439475E+06  0.2709022E+01  0.9171535E-02  0.1744698E+01  0.5138854E+05 -0.3141593E+01  0.2966923E+05  0.3141592E+01  0.9210272E+06 -0.1570796E+01  0.4843595E+05  0.1250040E-05  0.8390434E+05  0.3141592E+01  0.4204711E+00 -0.1600304E+01
  0.4000000E+00  0.9869165E+05  0.2576599E+01  0.5697973E+05  0.2576600E+01  0.6432964E+06 -0.2135787E+01  0.1816746E+06 -0.5649915E+00  0.3146714E+06  0.2576599E+01  0.1072553E-01 -0.8498250E+00  0.6645832E+05  0.3141593E+01  0.3836984E+05 -0.3141592E+01  0.9031785E+06 -0.1570796E+01  0.6234875E+05 -0.5795274E-05  0.1080148E+06 -0.3141593E+01  0.1085593E+01 -0.1592908E+01
  0.4500000E+00  0.1222504E+06  0.2426526E+01  0.7058124E+05  0.2426527E+01  0.6157253E+06 -0.2285863E+01  0.2267118E+06 -0.7150676E+00  0.3926749E+06  0.2426525E+01  0.1542777E-01 -0.1834967E+01  0.8316341E+05  0.3141592E+01  0.4801464E+05 -0.3141592E+01  0.8832380E+06 -0.1570796E+01  0.7761484E+05 -0.2893898E-05  0.1344796E+06 -0.3141593E+01  0.2741429E+01 -0.1579145E+01
  0.5000000E+00  0.1473514E+06  0.2258795E+01  0.8507326E+05  0.2258792E+01  0.5862284E+06 -0.2453595E+01  0.2755218E+06 -0.8827981E+00  0.4772186E+06  0.2258794E+01  0.1637745E-02  0.2034444E+01  0.1013643E+06 -0.3141593E+01  0.5852311E+05 -0.3141592E+01  0.8613134E+06 -0.1570796E+01  0.9405886E+05  0.3031679E-05  0.1630005E+06 -0.3141593E+01  0.5929428E+01 -0.1576785E+01
  0.5500000E+00  0.1736428E+06  0.2073407E+01  0.1002523E+06  0.2073405E+01  0.5551763E+06 -0.2638983E+01  0.3276528E+06 -0.1068186E+01  0.5675118E+06  0.2073407E+01  0.6630396E-02  0.1947884E+01  0.1209061E+06  0.3141593E+01  0.6980591E+05 -0.3141592E+01  0.8375236E+06 -0.1570796E+01  0.1114922E+06  0.1208745E-05  0.1932581E+06 -0.3141593E+01  0.1241335E+02 -0.1572801E+01
  0.6000000E+00  0.2007647E+06  0.1870363E+01  0.1159114E+06  0.1870359E+01  0.5229472E+06 -0.2842026E+01  0.3826230E+06 -0.1271227E+01  0.6627234E+06  0.1870364E+01  0.2280070E-01  0.1797595E+01  0.1416187E+06  0.3141593E+01  0.8176478E+05 -0.3141593E+01  0.8119996E+06 -0.1570796E+01  0.1297153E+06  0.1234675E-05  0.2249153E+06 -0.3141592E+01  0.2489420E+02 -0.1572383E+01
  0.6500000E+00  0.2283535E+06  0.1649662E+01  0.1318401E+06  0.1649663E+01  0.4899189E+06 -0.3062726E+01  0.4399320E+06 -0.1491927E+01  0.7619835E+06  0.1649662E+01  0.7244695E-02  0.1401493E+01  0.1633175E+06  0.3141593E+01  0.9429327E+05  0.3141593E+01  0.7848826E+06 -0.1570796E+01  0.1485199E+06 -0.2038342E-05  0.2576224E+06 -0.3141593E+01  0.4602433E+02 -0.1572111E+01
  0.7000000E+00  0.2560507E+06  0.1411308E+01  0.1478309E+06  0.1411310E+01  0.4564615E+06  0.2982104E+01  0.4990626E+06 -0.1730282E+01  0.8644021E+06  0.1411307E+01  0.1127880E-01  0.1396751E+01  0.1858042E+06  0.3141593E+01  0.1072770E+06 -0.3141593E+01  0.7563252E+06 -0.1570796E+01  0.1676918E+06  0.1980009E-06  0.2910205E+06 -0.3141593E+01  0.8185062E+02 -0.1571630E+01
  0.7500000E+00  0.2835052E+06  0.1155296E+01  0.1636819E+06  0.1155296E+01  0.4229311E+06  0.2726092E+01  0.5594917E+06 -0.1986299E+01  0.9690681E+06  0.1155296E+01  0.2895512E-01  0.6418148E+00  0.2088678E+06 -0.3141593E+01  0.1205941E+06 -0.3141593E+01  0.7264882E+06 -0.1570796E+01  0.1870133E+06  0.3822421E-05  0.3247460E+06  0.3141593E+01  0.1395792E+03 -0.1571184E+01
  0.8000000E+00  0.3103812E+06  0.8816283E+00  0.1791985E+06  0.8816275E+00  0.3896645E+06  0.2452425E+01  0.6206853E+06 -0.2259964E+01  0.1075059E+07  0.8816288E+00  0.6123016E-02 -0.1650626E+01  0.2322858E+06 -0.3141593E+01  0.1341164E+06  0.3141593E+01  0.6955421E+06 -0.1570796E+01  0.2062659E+06 -0.8522069E-06  0.3584353E+06 -0.3141592E+01  0.2291696E+03 -0.1570999E+01
  0.8500000E+00  0.3363620E+06  0.5903053E+00  0.1941990E+06  0.5903046E+00  0.3569728E+06  0.2161101E+01  0.6821100E+06 -0.2551287E+01  0.1181450E+07  0.5903050E+00  0.5179005E-02  0.1418971E+00  0.2558261E+06  0.3141593E+01  0.1477098E+06 -0.3141593E+01  0.6636637E+06 -0.1570796E+01  0.2252332E+06  0.2254608E-06  0.3917284E+06  0.3141593E+01  0.3639918E+03 -0.1571055E+01
  0.9000000E+00  0.3611542E+06  0.2813261E+00  0.2085127E+06  0.2813254E+00  0.3251381E+06  0.1852122E+01  0.7432329E+06 -0.2860268E+01  0.1287316E+07  0.2813263E+00  0.1491507E-01  0.1760166E+01  0.2792474E+06 -0.3141593E+01  0.1612353E+06  0.3141593E+01  0.6310372E+06 -0.1570796E+01  0.2437026E+06  0.1803235E-06  0.4242732E+06  0.3141593E+01  0.5617568E+03 -0.1570971E+01
  0.9500000E+00  0.3844912E+06 -0.4530945E-01  0.2219861E+06 -0.4530981E-01  0.2944093E+06  0.1525486E+01  0.8035231E+06  0.3096282E+01  0.1391743E+07 -0.4531008E-01  0.7767548E-02  0.5269432E+00  0.3023028E+06 -0.3141593E+01  0.1745503E+06 -0.3141593E+01  0.5978504E+06 -0.1570796E+01  0.2614685E+06 -0.8627653E-06  0.4557288E+06  0.3141593E+01  0.8446163E+03 -0.1570883E+01
  0.9999999E+00  0.4061344E+06 -0.3896009E+00  0.2344818E+06 -0.3896011E+00  0.2650007E+06  0.1181195E+01  0.8624552E+06  0.2751993E+01  0.1493818E+07 -0.3896009E+00  0.1237795E-01 -0.8887418E-01  0.3247405E+06 -0.3141593E+01  0.1875098E+06 -0.3141592E+01  0.5642943E+06 -0.1570796E+01  0.2783348E+06  0.8525870E-06  0.4857684E+06 -0.3141593E+01  0.1239764E+04 -0.1570878E+01
  0.1050000E+01  0.4258765E+06 -0.7515484E+00  0.2458798E+06 -0.7515488E+00  0.2370889E+06  0.8192480E+00  0.9195162E+06  0.2390044E+01  0.1592649E+07 -0.7515482E+00  0.2232794E-01 -0.5493269E+00  0.3463075E+06 -0.3141593E+01  0.1999676E+06 -0.3141593E+01  0.5305619E+06 -0.1570796E+01  0.2941168E+06  0.5910175E-06  0.5140837E+06 -0.3141593E+01  0.1781643E+04 -0.1570855E+01
  0.1100000E+01  0.4435416E+06 -0.1131152E+01  0.2560787E+06 -0.1131151E+01  0.2108138E+06  0.4396447E+00  0.9741998E+06  0.2010441E+01  0.1687364E+07 -0.1131152E+01  0.1999309E-01 -0.3816402E+00  0.3667507E+06  0.3141593E+01  0.2117778E+06  0.3141593E+01  0.4968447E+06 -0.1570796E+01  0.3086419E+06 -0.1360547E-06  0.5403852E+06  0.3141593E+01  0.2509923E+04 -0.1570850E+01
  0.1150000E+01  0.4589850E+06 -0.1528412E+01  0.2649952E+06 -0.1528411E+01  0.1862782E+06  0.4238466E-01  0.1026014E+07  0.1613181E+01  0.1777107E+07 -0.1528412E+01  0.2036380E-01  0.9428815E+00  0.3858219E+06  0.3141593E+01  0.2227973E+06 -0.3141593E+01  0.4633322E+06 -0.1570796E+01  0.3217534E+06  0.4400934E-06  0.5644068E+06  0.3141593E+01  0.3472193E+04 -0.1570814E+01
  0.1200000E+01  0.4720944E+06 -0.1943326E+01  0.2725640E+06 -0.1943326E+01  0.1635494E+06 -0.3725300E+00  0.1074480E+07  0.1198266E+01  0.1861053E+07 -0.1943326E+01  0.2793037E-01 -0.2207304E+01  0.4032784E+06 -0.3141593E+01  0.2328864E+06  0.3141592E+01  0.4302101E+06 -0.1570796E+01  0.3333106E+06 -0.4658521E-06  0.5859059E+06  0.3141593E+01  0.4724098E+04 -0.1570820E+01
  0.1250000E+01  0.4827867E+06 -0.2375899E+01  0.2787368E+06 -0.2375899E+01  0.1426607E+06 -0.8051018E+00  0.1119138E+07  0.7656946E+00  0.1938404E+07 -0.2375898E+01  0.8178270E-02 -0.2807009E+01  0.4188888E+06 -0.3141593E+01  0.2419108E+06 -0.3141593E+01  0.3976568E+06 -0.1570796E+01  0.3431896E+06 -0.2532538E-06  0.6046639E+06 -0.3141593E+01  0.6328114E+04 -0.1570826E+01
  0.1300000E+01  0.4910064E+06 -0.2826124E+01  0.2834825E+06 -0.2826124E+01  0.1236146E+06 -0.1255328E+01  0.1159548E+07  0.3154679E+00  0.2008397E+07 -0.2826124E+01  0.2862100E-01 -0.2710377E+01  0.4324336E+06  0.3141593E+01  0.2497446E+06  0.3141593E+01  0.3658421E+06 -0.1570796E+01  0.3512852E+06  0.3252566E-06  0.6204908E+06  0.3141593E+01  0.8355007E+04 -0.1570808E+01
  0.1350000E+01  0.4967262E+06  0.2989178E+01  0.2867851E+06  0.2989178E+01  0.1063851E+06 -0.1723211E+01  0.1195292E+07 -0.1524149E+00  0.2070306E+07  0.2989178E+01  0.1065933E-01  0.4124104E+00  0.4437120E+06  0.3141593E+01  0.2562711E+06 -0.3141593E+01  0.3349259E+06 -0.1570796E+01  0.3575101E+06 -0.3141301E-06  0.6332213E+06  0.3141593E+01  0.1088257E+05 -0.1570812E+01
  0.1400000E+01  0.4999427E+06  0.2503639E+01  0.2886420E+06  0.2503639E+01  0.9092226E+05 -0.2208750E+01  0.1225974E+07 -0.6379536E+00  0.2123448E+07  0.2503639E+01  0.1440311E-01  0.1638651E+01  0.4525412E+06 -0.3141593E+01  0.2613856E+06 -0.3141593E+01  0.3050555E+06 -0.1570796E+01  0.3617971E+06 -0.5182463E-06  0.6427184E+06  0.3141593E+01  0.1399536E+05 -0.1570807E+01
  0.1450000E+01  0.5006741E+06  0.2000443E+01  0.2890644E+06  0.2000443E+01  0.7715505E+05 -0.2711946E+01  0.1251230E+07 -0.1141150E+01  0.2167192E+07  0.2000443E+01  0.7258823E-02  0.8329813E+00  0.4587635E+06 -0.3141593E+01  0.2649967E+06 -0.3141593E+01  0.2763640E+06 -0.1570796E+01  0.3640966E+06 -0.1069508E-06  0.6488728E+06  0.3141593E+01  0.1778381E+05 -0.1570799E+01
  0.1500000E+01  0.4989585E+06  0.1479591E+01  0.2880738E+06  0.1479591E+01  0.6499566E+05  0.3050387E+01  0.1270724E+07 -0.1662002E+01  0.2200960E+07  0.1479591E+01  0.3862445E-01  0.1313553E+01  0.4622479E+06 -0.3141593E+01  0.2670282E+06  0.3141593E+01  0.2489695E+06 -0.1570796E+01  0.3643788E+06  0.2018432E-06  0.6516009E+06  0.3141593E+01  0.2234268E+05 -0.1570803E+01
  0.1550000E+01  0.4948506E+06  0.9410860E+00  0.2857019E+06  0.9410866E+00  0.5434313E+05  0.2511883E+01  0.1284163E+07 -0.2200507E+01  0.2224236E+07  0.9410864E+00  0.3590196E-02 -0.1881795E+01  0.4628934E+06 -0.3141593E+01  0.2674221E+06 -0.3141593E+01  0.2229732E+06 -0.1570796E+01  0.3626316E+06  0.1959149E-06  0.6508495E+06 -0.3141593E+01  0.2776939E+05 -0.1570799E+01
  0.1600000E+01  0.4884204E+06  0.3849223E+00  0.2819898E+06  0.3849223E+00  0.4508691E+05  0.1955718E+01  0.1291285E+07 -0.2756670E+01  0.2236573E+07  0.3849221E+00  0.1845322E-01 -0.4518138E+00  0.4606317E+06 -0.3141593E+01  0.2661383E+06  0.3141593E+01  0.1984582E+06 -0.1570796E+01  0.3588621E+06 -0.1700797E-08  0.6465922E+06  0.3141593E+01  0.3416161E+05 -0.1570797E+01
  0.1650000E+01  0.4797520E+06 -0.1888969E+00  0.2769850E+06 -0.1888965E+00  0.3711077E+05  0.1381899E+01  0.1291879E+07  0.2952696E+01  0.2237602E+07 -0.1888970E+00  0.7022774E-02  0.2246895E+01  0.4554303E+06 -0.3141593E+01  0.2631583E+06 -0.3141593E+01  0.1754891E+06 -0.1570796E+01  0.3530948E+06  0.3159839E-06  0.6388292E+06  0.3141593E+01  0.4161545E+05 -0.1570799E+01
  0.1700000E+01  0.4689389E+06 -0.7803705E+00  0.2707421E+06 -0.7803711E+00  0.3029567E+05  0.7904258E+00  0.1285780E+07  0.2361222E+01  0.2227037E+07 -0.7803707E+00  0.2058976E-01 -0.4344782E+00  0.4472948E+06 -0.3141593E+01  0.2584840E+06 -0.3141593E+01  0.1541119E+06 -0.1570796E+01  0.3453721E+06  0.8199942E-07  0.6275925E+06  0.3141593E+01  0.5022156E+05 -0.1570799E+01
  0.1750000E+01  0.4560861E+06 -0.1389504E+01  0.2633216E+06 -0.1389504E+01  0.2452256E+05  0.1812921E+00  0.1272875E+07  0.1752088E+01  0.2204684E+07 -0.1389504E+01  0.3341166E-01 -0.1808686E+01  0.4362690E+06  0.3141593E+01  0.2521412E+06 -0.3141593E+01  0.1343531E+06 -0.1570796E+01  0.3357518E+06 -0.3075828E-06  0.6129412E+06  0.3141593E+01  0.6006247E+05 -0.1570798E+01
  0.1800000E+01  0.4413067E+06 -0.2016290E+01  0.2547886E+06 -0.2016289E+01  0.1967516E+05 -0.4454933E+00  0.1253112E+07  0.1125303E+01  0.2170454E+07 -0.2016290E+01  0.1667723E-01  0.2402793E+01  0.4224389E+06 -0.3141593E+01  0.2441783E+06 -0.3141593E+01  0.1162213E+06 -0.1570796E+01  0.3243119E+06  0.3508028E-06  0.5949666E+06 -0.3141593E+01  0.7120860E+05 -0.1570796E+01
  0.1850000E+01  0.4247222E+06 -0.2660734E+01  0.2452135E+06 -0.2660734E+01  0.1564155E+05 -0.1089937E+01  0.1226497E+07  0.4808587E+00  0.2124355E+07 -0.2660734E+01  0.2271172E-01  0.3117404E+01  0.4059302E+06 -0.3141593E+01  0.2346674E+06 -0.3141593E+01  0.9970607E+05 -0.1570796E+01  0.3111448E+06  0.2024404E-06  0.5737904E+06  0.3141593E+01  0.8371556E+05 -0.1570796E+01
  0.1900000E+01  0.4064612E+06  0.2960353E+01  0.2346705E+06  0.2960353E+01  0.1231611E+05 -0.1752036E+01  0.1193104E+07 -0.1812399E+00  0.2066517E+07  0.2960353E+01  0.1180506E-01  0.2294004E+01  0.3869100E+06 -0.3141593E+01  0.2237047E+06 -0.3141592E+01  0.8478052E+05 -0.1570796E+01  0.2963605E+06  0.2875049E-06  0.5495683E+06 -0.3141593E+01  0.9761776E+05 -0.1570796E+01
  0.1950000E+01  0.3866607E+06  0.2280599E+01  0.2232385E+06  0.2280598E+01  0.9600549E+04 -0.2431790E+01  0.1153078E+07 -0.8609943E+00  0.1997192E+07  0.2280598E+01  0.2449206E-01  0.1160669E+01  0.3655859E+06  0.3141593E+01  0.2114086E+06 -0.3141592E+01  0.7140156E+05 -0.1570796E+01  0.2800869E+06 -0.2275033E-06  0.5224903E+06 -0.3141593E+01  0.1129275E+06 -0.1570796E+01
  0.2000000E+01  0.3654641E+06  0.1583187E+01  0.2110009E+06  0.1583187E+01  0.7404787E+04 -0.3129202E+01  0.1106633E+07 -0.1558406E+01  0.1916745E+07  0.1583187E+01  0.3773182E-01  0.1297723E+00  0.3422024E+06 -0.3141593E+01  0.1979202E+06 -0.3141592E+01  0.5951185E+05 -0.1570796E+01  0.2624680E+06  0.1367354E-06  0.4927823E+06 -0.3141593E+01  0.1296282E+06 -0.1570796E+01
