VARIABLES="w (rad/s)"
"abs(F   1   1)" "angle(F   1   1)"
"abs(F   1   2)" "angle(F   1   2)"
"abs(F   1   3)" "angle(F   1   3)"
"abs(F   1   4)" "angle(F   1   4)"
"abs(F   1   5)" "angle(F   1   5)"
"abs(F   1   6)" "angle(F   1   6)"
"abs(F   2   1)" "angle(F   2   1)"
"abs(F   2   2)" "angle(F   2   2)"
"abs(F   2   3)" "angle(F   2   3)"
"abs(F   2   4)" "angle(F   2   4)"
"abs(F   2   5)" "angle(F   2   5)"
"abs(F   2   6)" "angle(F   2   6)"
Zone t="FKforce - beta =  30.000",I=    40,F=POINT
  0.5000000E-01  0.1670476E+04  0.3132729E+01  0.9644434E+03  0.3133565E+01  0.7559354E+06 -0.1579624E+01  0.2992287E+04 -0.8992151E-02  0.5182772E+04  0.3132828E+01  0.1513745E-01  0.1560968E+01  0.1081842E+04  0.3141567E+01  0.6246019E+03  0.3141586E+01  0.9797516E+06 -0.1570796E+01  0.1035359E+04  0.1627984E-02  0.1793292E+04 -0.3141575E+01  0.1614994E+00 -0.1572992E+01
  0.1000000E+00  0.6656409E+04  0.3106277E+01  0.3843083E+04  0.3106327E+01  0.7501758E+06 -0.1606108E+01  0.1193888E+05 -0.3524883E-01  0.2067883E+05  0.3106240E+01  0.1751042E-02 -0.1351182E+01  0.4319091E+04 -0.3141587E+01  0.2493630E+04 -0.3141573E+01  0.9760087E+06 -0.1570796E+01  0.4129506E+04  0.8371537E-04  0.7152519E+04  0.3141592E+01  0.1226299E-01  0.1666364E+01
  0.1500000E+00  0.1488189E+05  0.3062126E+01  0.8591973E+04  0.3062150E+01  0.7406681E+06 -0.1650248E+01  0.2674994E+05 -0.7943827E-01  0.4633213E+05  0.3062128E+01  0.1298432E-02  0.1918563E+01  0.9686924E+04 -0.3141592E+01  0.5592746E+04  0.3141585E+01  0.9697932E+06 -0.1570796E+01  0.9246813E+04  0.7878559E-04  0.1601603E+05 -0.3141577E+01  0.4416453E-01  0.1637138E+01
  0.2000000E+00  0.2622206E+05  0.3000348E+01  0.1513931E+05  0.3000346E+01  0.7275477E+06 -0.1712044E+01  0.4727658E+05 -0.1412860E+00  0.8188548E+05  0.3000348E+01  0.1426660E-01 -0.1348647E+01  0.1714396E+05 -0.3141592E+01  0.9898062E+04 -0.3141587E+01  0.9611363E+06 -0.1570796E+01  0.1632836E+05  0.1543040E-04  0.2828195E+05 -0.3141589E+01  0.9533522E-01 -0.1621054E+01
  0.2500000E+00  0.4050577E+05  0.2920898E+01  0.2338593E+05  0.2920903E+01  0.7109994E+06 -0.1791496E+01  0.7331452E+05 -0.2207034E+00  0.1269843E+06  0.2920889E+01  0.1428796E-02 -0.2792822E+01  0.2663227E+05  0.3141592E+01  0.1537615E+05  0.3141593E+01  0.9500828E+06 -0.1570796E+01  0.2529260E+05  0.1598479E-04  0.4380955E+05 -0.3141592E+01  0.3595482E+00 -0.1587667E+01
  0.3000000E+00  0.5751913E+05  0.2823787E+01  0.3320878E+05  0.2823773E+01  0.6912543E+06 -0.1888604E+01  0.1046052E+06 -0.3177998E+00  0.1811819E+06  0.2823788E+01  0.1396945E-01 -0.1483301E+01  0.3807743E+05  0.3141593E+01  0.2198403E+05  0.3141590E+01  0.9366893E+06 -0.1570796E+01  0.3603633E+05  0.9972576E-05  0.6242115E+05 -0.3141591E+01  0.1054739E+00 -0.1639568E+01
  0.3500000E+00  0.7700970E+05  0.2709023E+01  0.4446144E+05  0.2709024E+01  0.6685846E+06 -0.2003368E+01  0.1408437E+06 -0.4325739E+00  0.2439476E+06  0.2709022E+01  0.4300272E-02  0.3027801E+01  0.5138854E+05  0.3141593E+01  0.2966923E+05  0.3141591E+01  0.9210272E+06 -0.1570796E+01  0.4843595E+05 -0.9677728E-06  0.8390434E+05  0.3141591E+01  0.3812218E+00 -0.1606307E+01
  0.4000000E+00  0.9869162E+05  0.2576600E+01  0.5697976E+05  0.2576601E+01  0.6432964E+06 -0.2135787E+01  0.1816746E+06 -0.5649897E+00  0.3146714E+06  0.2576599E+01  0.1150638E-01 -0.7178320E+00  0.6645833E+05  0.3141593E+01  0.3836985E+05 -0.3141592E+01  0.9031785E+06 -0.1570796E+01  0.6234876E+05 -0.5294061E-05  0.1080148E+06 -0.3141593E+01  0.1268390E+01 -0.1593391E+01
  0.4500000E+00  0.1222504E+06  0.2426526E+01  0.7058115E+05  0.2426526E+01  0.6157252E+06 -0.2285863E+01  0.2267117E+06 -0.7150670E+00  0.3926748E+06  0.2426525E+01  0.2303218E-02 -0.2129396E+01  0.8316345E+05  0.3141593E+01  0.4801464E+05 -0.3141592E+01  0.8832379E+06 -0.1570796E+01  0.7761486E+05  0.1409202E-05  0.1344796E+06  0.3141593E+01  0.2725489E+01 -0.1584855E+01
  0.5000000E+00  0.1473514E+06  0.2258795E+01  0.8507327E+05  0.2258793E+01  0.5862284E+06 -0.2453595E+01  0.2755220E+06 -0.8827964E+00  0.4772186E+06  0.2258794E+01  0.3173828E-02  0.3947911E+00  0.1013643E+06 -0.3141593E+01  0.5852311E+05 -0.3141593E+01  0.8613134E+06 -0.1570796E+01  0.9405886E+05  0.3509272E-05  0.1630005E+06 -0.3141593E+01  0.5984820E+01 -0.1575918E+01
  0.5500000E+00  0.1736428E+06  0.2073406E+01  0.1002522E+06  0.2073404E+01  0.5551764E+06 -0.2638983E+01  0.3276528E+06 -0.1068185E+01  0.5675119E+06  0.2073407E+01  0.6715254E-02 -0.2949545E+01  0.1209062E+06  0.3141593E+01  0.6980593E+05 -0.3141592E+01  0.8375236E+06 -0.1570796E+01  0.1114922E+06  0.1541588E-05  0.1932581E+06  0.3141592E+01  0.1240780E+02 -0.1574497E+01
  0.6000000E+00  0.2007647E+06  0.1870363E+01  0.1159113E+06  0.1870358E+01  0.5229472E+06 -0.2842026E+01  0.3826229E+06 -0.1271227E+01  0.6627234E+06  0.1870364E+01  0.1550293E-01  0.1570796E+01  0.1416187E+06  0.3141593E+01  0.8176477E+05 -0.3141593E+01  0.8119995E+06 -0.1570796E+01  0.1297153E+06  0.7528508E-06  0.2249153E+06 -0.3141593E+01  0.2486294E+02 -0.1572229E+01
  0.6500000E+00  0.2283536E+06  0.1649662E+01  0.1318401E+06  0.1649664E+01  0.4899189E+06 -0.3062726E+01  0.4399322E+06 -0.1491926E+01  0.7619836E+06  0.1649662E+01  0.8534671E-02  0.1369193E+01  0.1633175E+06 -0.3141593E+01  0.9429327E+05 -0.3141592E+01  0.7848826E+06 -0.1570796E+01  0.1485199E+06 -0.2419710E-05  0.2576224E+06 -0.3141593E+01  0.4592397E+02 -0.1571702E+01
  0.7000000E+00  0.2560508E+06  0.1411308E+01  0.1478310E+06  0.1411309E+01  0.4564614E+06  0.2982104E+01  0.4990627E+06 -0.1730282E+01  0.8644025E+06  0.1411307E+01  0.1808125E-01  0.9678136E+00  0.1858042E+06  0.3141593E+01  0.1072770E+06 -0.3141593E+01  0.7563251E+06 -0.1570796E+01  0.1676918E+06 -0.6522382E-06  0.2910205E+06 -0.3141593E+01  0.8189980E+02 -0.1571558E+01
  0.7500001E+00  0.2835053E+06  0.1155295E+01  0.1636820E+06  0.1155295E+01  0.4229311E+06  0.2726092E+01  0.5594920E+06 -0.1986299E+01  0.9690683E+06  0.1155296E+01  0.2180416E-01  0.1436025E+01  0.2088679E+06 -0.3141593E+01  0.1205942E+06 -0.3141593E+01  0.7264882E+06 -0.1570796E+01  0.1870133E+06  0.3049582E-05  0.3247460E+06  0.3141592E+01  0.1395548E+03 -0.1571301E+01
  0.8000000E+00  0.3103812E+06  0.8816281E+00  0.1791985E+06  0.8816268E+00  0.3896645E+06  0.2452425E+01  0.6206858E+06 -0.2259965E+01  0.1075059E+07  0.8816286E+00  0.1977388E-01 -0.2145101E+01  0.2322859E+06 -0.3141593E+01  0.1341165E+06  0.3141593E+01  0.6955421E+06 -0.1570796E+01  0.2062660E+06 -0.1728086E-05  0.3584354E+06 -0.3141592E+01  0.2290404E+03 -0.1571087E+01
  0.8500000E+00  0.3363621E+06  0.5903049E+00  0.1941990E+06  0.5903045E+00  0.3569728E+06  0.2161101E+01  0.6821104E+06 -0.2551287E+01  0.1181450E+07  0.5903046E+00  0.1314737E-02 -0.3805064E+00  0.2558261E+06  0.3141593E+01  0.1477098E+06 -0.3141593E+01  0.6636638E+06 -0.1570796E+01  0.2252332E+06  0.2211250E-06  0.3917285E+06  0.3141593E+01  0.3640232E+03 -0.1571088E+01
  0.9000000E+00  0.3611546E+06  0.2813253E+00  0.2085128E+06  0.2813249E+00  0.3251381E+06  0.1852121E+01  0.7432330E+06 -0.2860269E+01  0.1287317E+07  0.2813253E+00  0.7877319E-02 -0.3099782E-01  0.2792475E+06  0.3141593E+01  0.1612353E+06  0.3141593E+01  0.6310371E+06 -0.1570796E+01  0.2437026E+06  0.6131000E-06  0.4242732E+06 -0.3141593E+01  0.5616670E+03 -0.1570948E+01
  0.9500000E+00  0.3844912E+06 -0.4530992E-01  0.2219861E+06 -0.4531042E-01  0.2944093E+06  0.1525486E+01  0.8035238E+06  0.3096282E+01  0.1391744E+07 -0.4531027E-01  0.8802615E-02 -0.1231504E+01  0.3023029E+06 -0.3141593E+01  0.1745503E+06 -0.3141593E+01  0.5978504E+06 -0.1570796E+01  0.2614686E+06 -0.6424050E-06  0.4557288E+06  0.3141593E+01  0.8443663E+03 -0.1570965E+01
  0.1000000E+01  0.4061344E+06 -0.3896016E+00  0.2344818E+06 -0.3896016E+00  0.2650007E+06  0.1181195E+01  0.8624559E+06  0.2751993E+01  0.1493819E+07 -0.3896013E+00  0.2201669E-01 -0.3568239E+00  0.3247405E+06 -0.3141593E+01  0.1875098E+06 -0.3141593E+01  0.5642942E+06 -0.1570796E+01  0.2783348E+06  0.9227588E-06  0.4857684E+06 -0.3141593E+01  0.1239754E+04 -0.1570891E+01
  0.1050000E+01  0.4258765E+06 -0.7515485E+00  0.2458799E+06 -0.7515491E+00  0.2370889E+06  0.8192480E+00  0.9195161E+06  0.2390044E+01  0.1592649E+07 -0.7515483E+00  0.2259991E-01 -0.3790019E+00  0.3463076E+06 -0.3141593E+01  0.1999676E+06 -0.3141593E+01  0.5305619E+06 -0.1570796E+01  0.2941168E+06  0.4515638E-06  0.5140838E+06 -0.3141593E+01  0.1781775E+04 -0.1570862E+01
  0.1100000E+01  0.4435416E+06 -0.1131153E+01  0.2560789E+06 -0.1131152E+01  0.2108138E+06  0.4396439E+00  0.9742008E+06  0.2010440E+01  0.1687364E+07 -0.1131152E+01  0.2784958E-01 -0.6022874E+00  0.3667507E+06 -0.3141593E+01  0.2117778E+06 -0.3141593E+01  0.4968447E+06 -0.1570796E+01  0.3086419E+06 -0.2752735E-06  0.5403854E+06  0.3141593E+01  0.2509923E+04 -0.1570846E+01
  0.1150000E+01  0.4589850E+06 -0.1528412E+01  0.2649952E+06 -0.1528411E+01  0.1862782E+06  0.4238465E-01  0.1026014E+07  0.1613181E+01  0.1777107E+07 -0.1528412E+01  0.1723916E-01  0.1784857E+01  0.3858219E+06 -0.3141593E+01  0.2227973E+06 -0.3141593E+01  0.4633323E+06 -0.1570796E+01  0.3217534E+06  0.1669320E-06  0.5644069E+06  0.3141593E+01  0.3472162E+04 -0.1570818E+01
  0.1200000E+01  0.4720943E+06 -0.1943327E+01  0.2725639E+06 -0.1943327E+01  0.1635495E+06 -0.3725304E+00  0.1074480E+07  0.1198265E+01  0.1861053E+07 -0.1943327E+01  0.3002533E-01 -0.2034444E+01  0.4032785E+06 -0.3141593E+01  0.2328864E+06  0.3141592E+01  0.4302101E+06 -0.1570796E+01  0.3333106E+06 -0.9243795E-06  0.5859059E+06 -0.3141593E+01  0.4724188E+04 -0.1570817E+01
  0.1250000E+01  0.4827867E+06 -0.2375899E+01  0.2787368E+06 -0.2375899E+01  0.1426608E+06 -0.8051018E+00  0.1119138E+07  0.7656944E+00  0.1938404E+07 -0.2375898E+01  0.1135197E-01 -0.2696957E+01  0.4188888E+06 -0.3141593E+01  0.2419108E+06 -0.3141593E+01  0.3976569E+06 -0.1570796E+01  0.3431896E+06 -0.2560993E-07  0.6046639E+06 -0.3141593E+01  0.6328145E+04 -0.1570829E+01
  0.1300000E+01  0.4910063E+06 -0.2826124E+01  0.2834825E+06 -0.2826124E+01  0.1236146E+06 -0.1255328E+01  0.1159548E+07  0.3154673E+00  0.2008398E+07 -0.2826125E+01  0.1138858E-01 -0.2601173E+01  0.4324337E+06  0.3141593E+01  0.2497446E+06  0.3141593E+01  0.3658421E+06 -0.1570796E+01  0.3512852E+06  0.2501974E-06  0.6204908E+06  0.3141593E+01  0.8355006E+04 -0.1570805E+01
  0.1350000E+01  0.4967261E+06  0.2989176E+01  0.2867851E+06  0.2989176E+01  0.1063850E+06 -0.1723213E+01  0.1195292E+07 -0.1524164E+00  0.2070306E+07  0.2989176E+01  0.1263000E-01  0.1215419E+01  0.4437120E+06 -0.3141593E+01  0.2562712E+06 -0.3141593E+01  0.3349258E+06 -0.1570796E+01  0.3575102E+06 -0.2274029E-06  0.6332214E+06 -0.3141593E+01  0.1088266E+05 -0.1570810E+01
  0.1400000E+01  0.4999428E+06  0.2503638E+01  0.2886421E+06  0.2503638E+01  0.9092223E+05 -0.2208751E+01  0.1225974E+07 -0.6379550E+00  0.2123448E+07  0.2503638E+01  0.3003212E-01  0.3127874E+01  0.4525412E+06 -0.3141593E+01  0.2613857E+06 -0.3141593E+01  0.3050555E+06 -0.1570796E+01  0.3617971E+06 -0.3488715E-06  0.6427186E+06  0.3141593E+01  0.1399534E+05 -0.1570809E+01
  0.1450000E+01  0.5006742E+06  0.2000441E+01  0.2890645E+06  0.2000441E+01  0.7715500E+05 -0.2711947E+01  0.1251229E+07 -0.1141151E+01  0.2167192E+07  0.2000442E+01  0.1482086E-01  0.1488339E+01  0.4587635E+06  0.3141593E+01  0.2649967E+06 -0.3141593E+01  0.2763639E+06 -0.1570796E+01  0.3640966E+06 -0.2417290E-06  0.6488728E+06 -0.3141593E+01  0.1778384E+05 -0.1570800E+01
  0.1500000E+01  0.4989586E+06  0.1479591E+01  0.2880738E+06  0.1479591E+01  0.6499566E+05  0.3050387E+01  0.1270724E+07 -0.1662002E+01  0.2200961E+07  0.1479591E+01  0.3650392E-01  0.1212026E+01  0.4622479E+06  0.3141593E+01  0.2670282E+06 -0.3141593E+01  0.2489695E+06 -0.1570796E+01  0.3643788E+06  0.4338371E-07  0.6516009E+06  0.3141593E+01  0.2234263E+05 -0.1570803E+01
  0.1550000E+01  0.4948505E+06  0.9410841E+00  0.2857020E+06  0.9410841E+00  0.5434311E+05  0.2511881E+01  0.1284163E+07 -0.2200509E+01  0.2224235E+07  0.9410841E+00  0.1851620E-01 -0.7737437E+00  0.4628934E+06 -0.3141593E+01  0.2674221E+06 -0.3141593E+01  0.2229732E+06 -0.1570796E+01  0.3626316E+06  0.5156862E-06  0.6508496E+06 -0.3141593E+01  0.2776949E+05 -0.1570800E+01
  0.1600000E+01  0.4884204E+06  0.3849202E+00  0.2819898E+06  0.3849201E+00  0.4508688E+05  0.1955716E+01  0.1291286E+07 -0.2756673E+01  0.2236574E+07  0.3849198E+00  0.1884554E-01  0.2411185E+01  0.4606316E+06  0.3141593E+01  0.2661383E+06  0.3141593E+01  0.1984580E+06 -0.1570796E+01  0.3588621E+06  0.4694200E-07  0.6465922E+06  0.3141593E+01  0.3416167E+05 -0.1570799E+01
  0.1650000E+01  0.4797520E+06 -0.1888980E+00  0.2769851E+06 -0.1888976E+00  0.3711077E+05  0.1381899E+01  0.1291880E+07  0.2952695E+01  0.2237602E+07 -0.1888980E+00  0.3694148E-01 -0.1234024E+01  0.4554303E+06 -0.3141593E+01  0.2631583E+06 -0.3141593E+01  0.1754891E+06 -0.1570796E+01  0.3530948E+06  0.2337036E-06  0.6388292E+06 -0.3141593E+01  0.4161550E+05 -0.1570799E+01
  0.1700000E+01  0.4689390E+06 -0.7803728E+00  0.2707421E+06 -0.7803728E+00  0.3029564E+05  0.7904238E+00  0.1285781E+07  0.2361220E+01  0.2227038E+07 -0.7803729E+00  0.1125234E-01 -0.1307399E+01  0.4472948E+06  0.3141593E+01  0.2584840E+06 -0.3141593E+01  0.1541118E+06 -0.1570796E+01  0.3453720E+06  0.1654127E-06  0.6275925E+06  0.3141593E+01  0.5022160E+05 -0.1570799E+01
  0.1750000E+01  0.4560861E+06 -0.1389504E+01  0.2633216E+06 -0.1389504E+01  0.2452256E+05  0.1812921E+00  0.1272875E+07  0.1752088E+01  0.2204684E+07 -0.1389504E+01  0.3558931E-01 -0.1827422E+01  0.4362690E+06  0.3141593E+01  0.2521411E+06 -0.3141593E+01  0.1343531E+06 -0.1570796E+01  0.3357518E+06 -0.2832234E-06  0.6129412E+06 -0.3141593E+01  0.6006247E+05 -0.1570798E+01
  0.1800000E+01  0.4413067E+06 -0.2016290E+01  0.2547886E+06 -0.2016289E+01  0.1967516E+05 -0.4454933E+00  0.1253112E+07  0.1125303E+01  0.2170454E+07 -0.2016290E+01  0.1968258E-01  0.2424221E+01  0.4224389E+06 -0.3141593E+01  0.2441784E+06 -0.3141593E+01  0.1162213E+06 -0.1570796E+01  0.3243119E+06  0.3523084E-06  0.5949668E+06 -0.3141593E+01  0.7120863E+05 -0.1570796E+01
  0.1850000E+01  0.4247222E+06 -0.2660734E+01  0.2452135E+06 -0.2660734E+01  0.1564155E+05 -0.1089937E+01  0.1226497E+07  0.4808587E+00  0.2124355E+07 -0.2660734E+01  0.2064838E-01  0.2948255E+01  0.4059302E+06  0.3141593E+01  0.2346674E+06 -0.3141593E+01  0.9970607E+05 -0.1570796E+01  0.3111448E+06  0.2675666E-06  0.5737905E+06  0.3141593E+01  0.8371557E+05 -0.1570796E+01
  0.1900000E+01  0.4064613E+06  0.2960353E+01  0.2346705E+06  0.2960353E+01  0.1231611E+05 -0.1752036E+01  0.1193104E+07 -0.1812399E+00  0.2066517E+07  0.2960353E+01  0.1523497E-01  0.2353362E+01  0.3869101E+06  0.3141593E+01  0.2237047E+06 -0.3141592E+01  0.8478053E+05 -0.1570796E+01  0.2963605E+06  0.2216011E-06  0.5495684E+06 -0.3141593E+01  0.9761777E+05 -0.1570796E+01
  0.1950000E+01  0.3866608E+06  0.2280599E+01  0.2232385E+06  0.2280598E+01  0.9600550E+04 -0.2431790E+01  0.1153078E+07 -0.8609943E+00  0.1997192E+07  0.2280598E+01  0.3076469E-01  0.1094727E+01  0.3655859E+06  0.3141593E+01  0.2114086E+06 -0.3141593E+01  0.7140157E+05 -0.1570796E+01  0.2800869E+06 -0.2536532E-06  0.5224904E+06 -0.3141593E+01  0.1129275E+06 -0.1570796E+01
  0.2000000E+01  0.3654641E+06  0.1583187E+01  0.2110009E+06  0.1583187E+01  0.7404788E+04 -0.3129202E+01  0.1106633E+07 -0.1558406E+01  0.1916745E+07  0.1583187E+01  0.4140690E-01  0.1479424E+00  0.3422024E+06 -0.3141593E+01  0.1979202E+06 -0.3141592E+01  0.5951185E+05 -0.1570796E+01  0.2624680E+06  0.1730121E-06  0.4927823E+06 -0.3141593E+01  0.1296282E+06 -0.1570796E+01
