VARIABLES="X" "Y" "Z" "Module" "Phase" "Real" "Imag" "Re(NVEL)" "Im(NVEL)"
 ZONE t="Body",N=        1768 , E=        1148  , F=FEPOINT,ET=QUADRILATERAL
   0.4755283E+01   0.1545085E+01  -0.1000000E+02   0.1745417E+00  -0.1876686E+00   0.1714770E+00  -0.3256405E-01  -0.1408127E-01
   0.3539532E-01
   0.4755283E+01   0.1545085E+01  -0.9090909E+01   0.2619190E+00  -0.2125177E+00   0.2560266E+00  -0.5524438E-01  -0.2039979E-01
   0.5127783E-01
   0.4755283E+01   0.1545085E+01  -0.8181818E+01   0.3858682E+00  -0.2198395E+00   0.3765813E+00  -0.8414742E-01  -0.2955356E-01
   0.7428716E-01
   0.4755283E+01   0.1545085E+01  -0.7272727E+01   0.5628152E+00  -0.2166035E+00   0.5496639E+00  -0.1209567E+00  -0.4281478E-01
   0.1076212E+00
   0.4755283E+01   0.1545085E+01  -0.6363636E+01   0.8231268E+00  -0.2132222E+00   0.8044864E+00  -0.1741821E+00  -0.6202655E-01
   0.1559127E+00
   0.4755283E+01   0.1545085E+01  -0.5454545E+01   0.1196502E+01  -0.2107719E+00   0.1170023E+01  -0.2503258E+00  -0.8985901E-01
   0.2258736E+00
   0.4755283E+01   0.1545085E+01  -0.4545455E+01   0.1740520E+01  -0.2100904E+00   0.1702250E+01  -0.3629825E+00  -0.1301804E+00
   0.3272273E+00
   0.4755283E+01   0.1545085E+01  -0.3636364E+01   0.2533194E+01  -0.2070135E+00   0.2479108E+01  -0.5206678E+00  -0.1885947E+00
   0.4740601E+00
   0.4755283E+01   0.1545085E+01  -0.2727273E+01   0.3680602E+01  -0.2049198E+00   0.3603594E+01  -0.7489609E+00  -0.2732206E+00
   0.6867797E+00
   0.4755283E+01   0.1545085E+01  -0.1818182E+01   0.5354074E+01  -0.2020028E+00   0.5245208E+01  -0.1074198E+01  -0.3958197E+00
   0.9949501E+00
   0.4755283E+01   0.1545085E+01  -0.9090910E+00   0.7811870E+01  -0.1943553E+00   0.7664791E+01  -0.1508738E+01  -0.5734313E+00
   0.1441403E+01
   0.4755283E+01   0.1545085E+01   0.0000000E+00   0.7811870E+01  -0.1943553E+00   0.7664791E+01  -0.1508738E+01  -0.5734313E+00
   0.1441403E+01
   0.4877642E+01   0.7725425E+00  -0.1000000E+02   0.1577512E+00  -0.2528559E+00   0.1527350E+00  -0.3946461E-01  -0.9952690E-02
   0.3677028E-01
   0.4877642E+01   0.7725425E+00  -0.9090909E+01   0.2349118E+00  -0.2793702E+00   0.2258041E+00  -0.6477699E-01  -0.1441864E-01
   0.5326977E-01
   0.4877642E+01   0.7725425E+00  -0.8181818E+01   0.3445134E+00  -0.2880952E+00   0.3303149E+00  -0.9788536E-01  -0.2088855E-01
   0.7717292E-01
   0.4877642E+01   0.7725425E+00  -0.7272727E+01   0.5019588E+00  -0.2848848E+00   0.4817269E+00  -0.1410740E+00  -0.3026163E-01
   0.1118018E+00
   0.4877642E+01   0.7725425E+00  -0.6363636E+01   0.7336674E+00  -0.2816095E+00   0.7047678E+00  -0.2038877E+00  -0.4384057E-01
   0.1619693E+00
   0.4877642E+01   0.7725425E+00  -0.5454545E+01   0.1065845E+01  -0.2791756E+00   0.1024579E+01  -0.2937078E+00  -0.6351265E-01
   0.2346479E+00
   0.4877642E+01   0.7725425E+00  -0.4545455E+01   0.1549266E+01  -0.2788244E+00   0.1489433E+01  -0.4263977E+00  -0.9201194E-01
   0.3399388E+00
   0.4877642E+01   0.7725425E+00  -0.3636364E+01   0.2255394E+01  -0.2753375E+00   0.2170441E+01  -0.6131778E+00  -0.1332994E+00
   0.4924755E+00
   0.4877642E+01   0.7725425E+00  -0.2727273E+01   0.3277529E+01  -0.2728733E+00   0.3156262E+01  -0.8832924E+00  -0.1931132E+00
   0.7134583E+00
   0.4877642E+01   0.7725425E+00  -0.1818182E+01   0.4770004E+01  -0.2693480E+00   0.4598020E+01  -0.1269312E+01  -0.2797667E+00
   0.1033600E+01
   0.4877642E+01   0.7725425E+00  -0.9090910E+00   0.6970946E+01  -0.2596373E+00   0.6737302E+01  -0.1789651E+01  -0.4053031E+00
   0.1497395E+01
   0.4877642E+01   0.7725425E+00   0.0000000E+00   0.6970946E+01  -0.2596373E+00   0.6737302E+01  -0.1789651E+01  -0.4053031E+00
   0.1497395E+01
   0.5000000E+01   0.0000000E+00  -0.1000000E+02   0.1577512E+00  -0.2528559E+00   0.1527350E+00  -0.3946461E-01  -0.9952690E-02
   0.3677028E-01
   0.5000000E+01   0.0000000E+00  -0.9090909E+01   0.2349118E+00  -0.2793702E+00   0.2258041E+00  -0.6477699E-01  -0.1441864E-01
   0.5326977E-01
   0.5000000E+01   0.0000000E+00  -0.8181818E+01   0.3445134E+00  -0.2880952E+00   0.3303149E+00  -0.9788536E-01  -0.2088855E-01
   0.7717292E-01
   0.5000000E+01   0.0000000E+00  -0.7272727E+01   0.5019588E+00  -0.2848848E+00   0.4817269E+00  -0.1410740E+00  -0.3026163E-01
   0.1118018E+00
   0.5000000E+01   0.0000000E+00  -0.6363636E+01   0.7336674E+00  -0.2816095E+00   0.7047678E+00  -0.2038877E+00  -0.4384057E-01
   0.1619693E+00
   0.5000000E+01   0.0000000E+00  -0.5454545E+01   0.1065845E+01  -0.2791756E+00   0.1024579E+01  -0.2937078E+00  -0.6351265E-01
   0.2346479E+00
   0.5000000E+01   0.0000000E+00  -0.4545455E+01   0.1549266E+01  -0.2788244E+00   0.1489433E+01  -0.4263977E+00  -0.9201194E-01
   0.3399388E+00
   0.5000000E+01   0.0000000E+00  -0.3636364E+01   0.2255394E+01  -0.2753375E+00   0.2170441E+01  -0.6131778E+00  -0.1332994E+00
   0.4924755E+00
   0.5000000E+01   0.0000000E+00  -0.2727273E+01   0.3277529E+01  -0.2728733E+00   0.3156262E+01  -0.8832924E+00  -0.1931132E+00
   0.7134583E+00
   0.5000000E+01   0.0000000E+00  -0.1818182E+01   0.4770004E+01  -0.2693480E+00   0.4598020E+01  -0.1269312E+01  -0.2797667E+00
   0.1033600E+01
   0.5000000E+01   0.0000000E+00  -0.9090910E+00   0.6970946E+01  -0.2596373E+00   0.6737302E+01  -0.1789651E+01  -0.4053031E+00
   0.1497395E+01
   0.5000000E+01   0.0000000E+00   0.0000000E+00   0.6970946E+01  -0.2596373E+00   0.6737302E+01  -0.1789651E+01  -0.4053031E+00
   0.1497395E+01
   0.4045085E+01   0.2938926E+01  -0.1000000E+02   0.1888570E+00  -0.7674381E-01   0.1883012E+00  -0.1447939E-01  -0.1811961E-01
   0.3649731E-01
   0.4045085E+01   0.2938926E+01  -0.9090909E+01   0.2847041E+00  -0.9522118E-01   0.2834144E+00  -0.2706891E-01  -0.2625020E-01
   0.5287430E-01
   0.4045085E+01   0.2938926E+01  -0.8181818E+01   0.4205886E+00  -0.1000706E+00   0.4184844E+00  -0.4201835E-01  -0.3802916E-01
   0.7659999E-01
   0.4045085E+01   0.2938926E+01  -0.7272727E+01   0.6135683E+00  -0.9504085E-01   0.6107993E+00  -0.5822630E-01  -0.5509354E-01
   0.1109718E+00
   0.4045085E+01   0.2938926E+01  -0.6363636E+01   0.8972740E+00  -0.8988500E-01   0.8936518E+00  -0.8054291E-01  -0.7981502E-01
   0.1607669E+00
   0.4045085E+01   0.2938926E+01  -0.5454545E+01   0.1304832E+01  -0.8693721E-01   0.1299904E+01  -0.1132956E+00  -0.1156295E+00
   0.2329059E+00
   0.4045085E+01   0.2938926E+01  -0.4545455E+01   0.1899225E+01  -0.8560550E-01   0.1892270E+01  -0.1623856E+00  -0.1675146E+00
   0.3374151E+00
   0.4045085E+01   0.2938926E+01  -0.3636364E+01   0.2763192E+01  -0.8240975E-01   0.2753814E+01  -0.2274563E+00  -0.2426814E+00
   0.4888194E+00
   0.4045085E+01   0.2938926E+01  -0.2727273E+01   0.4014493E+01  -0.8066094E-01   0.4001441E+01  -0.3234618E+00  -0.3515770E+00
   0.7081616E+00
   0.4045085E+01   0.2938926E+01  -0.1818182E+01   0.5837539E+01  -0.7828230E-01   0.5819661E+01  -0.4565093E+00  -0.5093359E+00
   0.1025927E+01
   0.4045085E+01   0.2938926E+01  -0.9090910E+00   0.8503363E+01  -0.7280049E-01   0.8480839E+01  -0.6185023E+00  -0.7378845E+00
   0.1486279E+01
   0.4045085E+01   0.2938926E+01   0.0000000E+00   0.8503363E+01  -0.7280049E-01   0.8480839E+01  -0.6185023E+00  -0.7378845E+00
   0.1486279E+01
   0.4400184E+01   0.2242005E+01  -0.1000000E+02   0.1865609E+00  -0.1273305E+00   0.1850506E+00  -0.2369075E-01  -0.1750790E-01
   0.3679467E-01
   0.4400184E+01   0.2242005E+01  -0.9090909E+01   0.2813728E+00  -0.1488809E+00   0.2782602E+00  -0.4173646E-01  -0.2536400E-01
   0.5330509E-01
   0.4400184E+01   0.2242005E+01  -0.8181818E+01   0.4155556E+00  -0.1548528E+00   0.4105831E+00  -0.6409308E-01  -0.3674531E-01
   0.7722409E-01
   0.4400184E+01   0.2242005E+01  -0.7272727E+01   0.6063750E+00  -0.1509548E+00   0.5994793E+00  -0.9118799E-01  -0.5323359E-01
   0.1118759E+00
   0.4400184E+01   0.2242005E+01  -0.6363636E+01   0.8869690E+00  -0.1469010E+00   0.8774159E+00  -0.1298285E+00  -0.7712048E-01
   0.1620767E+00
   0.4400184E+01   0.2242005E+01  -0.5454545E+01   0.1289727E+01  -0.1442759E+00   0.1276327E+01  -0.1854316E+00  -0.1117259E+00
   0.2348035E+00
   0.4400184E+01   0.2242005E+01  -0.4545455E+01   0.1876964E+01  -0.1432664E+00   0.1857735E+01  -0.2679869E+00  -0.1618593E+00
   0.3401642E+00
   0.4400184E+01   0.2242005E+01  -0.3636364E+01   0.2731151E+01  -0.1402751E+00   0.2704324E+01  -0.3818573E+00  -0.2344885E+00
   0.4928020E+00
   0.4400184E+01   0.2242005E+01  -0.2727273E+01   0.3967810E+01  -0.1384261E+00   0.3929856E+01  -0.5474961E+00  -0.3397078E+00
   0.7139313E+00
   0.4400184E+01   0.2242005E+01  -0.1818182E+01   0.5769939E+01  -0.1359032E+00   0.5716736E+01  -0.7817418E+00  -0.4921409E+00
   0.1034285E+01
   0.4400184E+01   0.2242005E+01  -0.9090910E+00   0.8406832E+01  -0.1297847E+00   0.8336128E+01  -0.1088018E+01  -0.7129737E+00
   0.1498388E+01
   0.4400184E+01   0.2242005E+01   0.0000000E+00   0.8406832E+01  -0.1297847E+00   0.8336128E+01  -0.1088018E+01  -0.7129737E+00
   0.1498388E+01
   0.4755283E+01   0.1545085E+01  -0.1000000E+02   0.1865609E+00  -0.1273305E+00   0.1850506E+00  -0.2369075E-01  -0.1750790E-01
   0.3679467E-01
   0.4755283E+01   0.1545085E+01  -0.9090909E+01   0.2813728E+00  -0.1488809E+00   0.2782602E+00  -0.4173646E-01  -0.2536400E-01
   0.5330509E-01
   0.4755283E+01   0.1545085E+01  -0.8181818E+01   0.4155556E+00  -0.1548528E+00   0.4105831E+00  -0.6409308E-01  -0.3674531E-01
   0.7722409E-01
   0.4755283E+01   0.1545085E+01  -0.7272727E+01   0.6063750E+00  -0.1509548E+00   0.5994793E+00  -0.9118799E-01  -0.5323359E-01
   0.1118759E+00
   0.4755283E+01   0.1545085E+01  -0.6363636E+01   0.8869690E+00  -0.1469010E+00   0.8774159E+00  -0.1298285E+00  -0.7712048E-01
   0.1620767E+00
   0.4755283E+01   0.1545085E+01  -0.5454545E+01   0.1289727E+01  -0.1442759E+00   0.1276327E+01  -0.1854316E+00  -0.1117259E+00
   0.2348035E+00
   0.4755283E+01   0.1545085E+01  -0.4545455E+01   0.1876964E+01  -0.1432664E+00   0.1857735E+01  -0.2679869E+00  -0.1618593E+00
   0.3401642E+00
   0.4755283E+01   0.1545085E+01  -0.3636364E+01   0.2731151E+01  -0.1402751E+00   0.2704324E+01  -0.3818573E+00  -0.2344885E+00
   0.4928020E+00
   0.4755283E+01   0.1545085E+01  -0.2727273E+01   0.3967810E+01  -0.1384261E+00   0.3929856E+01  -0.5474961E+00  -0.3397078E+00
   0.7139313E+00
   0.4755283E+01   0.1545085E+01  -0.1818182E+01   0.5769939E+01  -0.1359032E+00   0.5716736E+01  -0.7817418E+00  -0.4921409E+00
   0.1034285E+01
   0.4755283E+01   0.1545085E+01  -0.9090910E+00   0.8406832E+01  -0.1297847E+00   0.8336128E+01  -0.1088018E+01  -0.7129737E+00
   0.1498388E+01
   0.4755283E+01   0.1545085E+01   0.0000000E+00   0.8406832E+01  -0.1297847E+00   0.8336128E+01  -0.1088018E+01  -0.7129737E+00
   0.1498388E+01
   0.2938926E+01   0.4045085E+01  -0.1000000E+02   0.1616759E+00   0.1848891E-01   0.1616483E+00   0.2989042E-02  -0.1334220E-01
   0.3708626E-01
   0.2938926E+01   0.4045085E+01  -0.9090909E+01   0.2398262E+00   0.1285715E-01   0.2398064E+00   0.3083397E-02  -0.1932908E-01
   0.5372753E-01
   0.2938926E+01   0.4045085E+01  -0.8181818E+01   0.3520706E+00   0.1226602E-01   0.3520441E+00   0.4318396E-02  -0.2800240E-01
   0.7783608E-01
   0.2938926E+01   0.4045085E+01  -0.7272727E+01   0.5120495E+00   0.2250679E-01   0.5119198E+00   0.1152362E-01  -0.4056759E-01
   0.1127625E+00
   0.2938926E+01   0.4045085E+01  -0.6363636E+01   0.7470301E+00   0.3240153E-01   0.7466380E+00   0.2420068E-01  -0.5877100E-01
   0.1633611E+00
   0.2938926E+01   0.4045085E+01  -0.5454545E+01   0.1085796E+01   0.3703257E-01   0.1085051E+01   0.4020062E-01  -0.8514263E-01
   0.2366643E+00
   0.2938926E+01   0.4045085E+01  -0.4545455E+01   0.1579315E+01   0.3954423E-01   0.1578080E+01   0.6243651E-01  -0.1233477E+00
   0.3428599E+00
   0.2938926E+01   0.4045085E+01  -0.3636364E+01   0.2297596E+01   0.4414044E-01   0.2295358E+01   0.1013840E+00  -0.1786961E+00
   0.4967074E+00
   0.2938926E+01   0.4045085E+01  -0.2727273E+01   0.3340077E+01   0.4599810E-01   0.3336544E+01   0.1535830E+00  -0.2588803E+00
   0.7195891E+00
   0.2938926E+01   0.4045085E+01  -0.1818182E+01   0.4860837E+01   0.4850195E-01   0.4855120E+01   0.2356676E+00  -0.3750446E+00
   0.1042482E+01
   0.2938926E+01   0.4045085E+01  -0.9090910E+00   0.7100200E+01   0.5345185E-01   0.7090060E+01   0.3793381E+00  -0.5433340E+00
   0.1510263E+01
   0.2938926E+01   0.4045085E+01   0.0000000E+00   0.7100200E+01   0.5345185E-01   0.7090060E+01   0.3793381E+00  -0.5433340E+00
   0.1510263E+01
   0.3492005E+01   0.3492005E+01  -0.1000000E+02   0.1801166E+00  -0.2537878E-01   0.1800586E+00  -0.4570649E-02  -0.1635462E-01
   0.3585988E-01
   0.3492005E+01   0.3492005E+01  -0.9090909E+01   0.2699033E+00  -0.3810842E-01   0.2697073E+00  -0.1028310E-01  -0.2369323E-01
   0.5195085E-01
   0.3492005E+01   0.3492005E+01  -0.8181818E+01   0.3979301E+00  -0.4128715E-01   0.3975910E+00  -0.1642473E-01  -0.3432483E-01
   0.7526217E-01
   0.3492005E+01   0.3492005E+01  -0.7272727E+01   0.5798870E+00  -0.3416151E-01   0.5795487E+00  -0.1980596E-01  -0.4972701E-01
   0.1090337E+00
   0.3492005E+01   0.3492005E+01  -0.6363636E+01   0.8473076E+00  -0.2708341E-01   0.8469968E+00  -0.2294518E-01  -0.7204042E-01
   0.1579591E+00
   0.3492005E+01   0.3492005E+01  -0.5454545E+01   0.1232010E+01  -0.2348858E-01   0.1231670E+01  -0.2893551E-01  -0.1043663E+00
   0.2288382E+00
   0.3492005E+01   0.3492005E+01  -0.4545455E+01   0.1792949E+01  -0.2169135E-01   0.1792528E+01  -0.3888844E-01  -0.1511974E+00
   0.3315221E+00
   0.3492005E+01   0.3492005E+01  -0.3636364E+01   0.2608411E+01  -0.1796835E-01   0.2607990E+01  -0.4686632E-01  -0.2190424E+00
   0.4802822E+00
   0.3492005E+01   0.3492005E+01  -0.2727273E+01   0.3790395E+01  -0.1622382E-01   0.3789896E+01  -0.6149200E-01  -0.3173307E+00
   0.6957935E+00
   0.3492005E+01   0.3492005E+01  -0.1818182E+01   0.5513084E+01  -0.1386427E-01   0.5512555E+01  -0.7643244E-01  -0.4597228E+00
   0.1008009E+01
   0.3492005E+01   0.3492005E+01  -0.9090910E+00   0.8038336E+01  -0.8964355E-02   0.8038013E+01  -0.7205753E-01  -0.6660088E+00
   0.1460321E+01
   0.3492005E+01   0.3492005E+01   0.0000000E+00   0.8038336E+01  -0.8964355E-02   0.8038013E+01  -0.7205753E-01  -0.6660088E+00
   0.1460321E+01
   0.4045085E+01   0.2938926E+01  -0.1000000E+02   0.1801166E+00  -0.2537878E-01   0.1800586E+00  -0.4570649E-02  -0.1635462E-01
   0.3585988E-01
   0.4045085E+01   0.2938926E+01  -0.9090909E+01   0.2699033E+00  -0.3810842E-01   0.2697073E+00  -0.1028310E-01  -0.2369323E-01
   0.5195085E-01
   0.4045085E+01   0.2938926E+01  -0.8181818E+01   0.3979301E+00  -0.4128715E-01   0.3975910E+00  -0.1642473E-01  -0.3432483E-01
   0.7526217E-01
   0.4045085E+01   0.2938926E+01  -0.7272727E+01   0.5798870E+00  -0.3416151E-01   0.5795487E+00  -0.1980596E-01  -0.4972701E-01
   0.1090337E+00
   0.4045085E+01   0.2938926E+01  -0.6363636E+01   0.8473076E+00  -0.2708341E-01   0.8469968E+00  -0.2294518E-01  -0.7204042E-01
   0.1579591E+00
   0.4045085E+01   0.2938926E+01  -0.5454545E+01   0.1232010E+01  -0.2348858E-01   0.1231670E+01  -0.2893551E-01  -0.1043663E+00
   0.2288382E+00
   0.4045085E+01   0.2938926E+01  -0.4545455E+01   0.1792949E+01  -0.2169135E-01   0.1792528E+01  -0.3888844E-01  -0.1511974E+00
   0.3315221E+00
   0.4045085E+01   0.2938926E+01  -0.3636364E+01   0.2608411E+01  -0.1796835E-01   0.2607990E+01  -0.4686632E-01  -0.2190424E+00
   0.4802822E+00
   0.4045085E+01   0.2938926E+01  -0.2727273E+01   0.3790395E+01  -0.1622382E-01   0.3789896E+01  -0.6149200E-01  -0.3173307E+00
   0.6957935E+00
   0.4045085E+01   0.2938926E+01  -0.1818182E+01   0.5513084E+01  -0.1386427E-01   0.5512555E+01  -0.7643244E-01  -0.4597228E+00
   0.1008009E+01
   0.4045085E+01   0.2938926E+01  -0.9090910E+00   0.8038336E+01  -0.8964355E-02   0.8038013E+01  -0.7205753E-01  -0.6660088E+00
   0.1460321E+01
   0.4045085E+01   0.2938926E+01   0.0000000E+00   0.8038336E+01  -0.8964355E-02   0.8038013E+01  -0.7205753E-01  -0.6660088E+00
   0.1460321E+01
   0.1545085E+01   0.4755283E+01  -0.1000000E+02   0.9647722E-01   0.1535400E+00   0.9534225E-01   0.1475498E-01  -0.1488871E-02
   0.3418839E-01
   0.1545085E+01   0.4755283E+01  -0.9090909E+01   0.1349683E+00   0.1991412E+00   0.1323009E+00   0.2670044E-01  -0.2156954E-02
   0.4952933E-01
   0.1545085E+01   0.4755283E+01  -0.8181818E+01   0.1934229E+00   0.2192648E+00   0.1887919E+00   0.4207181E-01  -0.3124821E-02
   0.7175408E-01
   0.1545085E+01   0.4755283E+01  -0.7272727E+01   0.2787150E+00   0.2480993E+00   0.2701810E+00   0.6844178E-01  -0.4526984E-02
   0.1039514E+00
   0.1545085E+01   0.4755283E+01  -0.6363636E+01   0.4038045E+00   0.2739801E+00   0.3887433E+00   0.1092555E+00  -0.6558324E-02
   0.1505963E+00
   0.1545085E+01   0.4755283E+01  -0.5454545E+01   0.5861314E+00   0.2849541E+00   0.5624954E+00   0.1647694E+00  -0.9501165E-02
   0.2181717E+00
   0.1545085E+01   0.4755283E+01  -0.4545455E+01   0.8500507E+00   0.2922170E+00   0.8140150E+00   0.2448791E+00  -0.1376451E-01
   0.3160693E+00
   0.1545085E+01   0.4755283E+01  -0.3636364E+01   0.1238346E+01   0.3009412E+00   0.1182692E+01   0.3670696E+00  -0.1994090E-01
   0.4578954E+00
   0.1545085E+01   0.4755283E+01  -0.2727273E+01   0.1805649E+01   0.3028854E+00   0.1723455E+01   0.5385808E+00  -0.2888875E-01
   0.6633614E+00
   0.1545085E+01   0.4755283E+01  -0.1818182E+01   0.2639441E+01   0.3050955E+00   0.2517547E+01   0.7928464E+00  -0.4185165E-01
   0.9610238E+00
   0.1545085E+01   0.4755283E+01  -0.9090910E+00   0.3914772E+01   0.3059331E+00   0.3732995E+01   0.1179063E+01  -0.6063126E-01
   0.1392253E+01
   0.1545085E+01   0.4755283E+01   0.0000000E+00   0.3914772E+01   0.3059331E+00   0.3732995E+01   0.1179063E+01  -0.6063126E-01
   0.1392253E+01
   0.2242005E+01   0.4400184E+01  -0.1000000E+02   0.1308274E+00   0.8262985E-01   0.1303810E+00   0.1079795E-01  -0.7375180E-02
   0.3341659E-01
   0.2242005E+01   0.4400184E+01  -0.9090909E+01   0.1893847E+00   0.9481301E-01   0.1885341E+00   0.1792924E-01  -0.1068456E-01
   0.4841121E-01
   0.2242005E+01   0.4400184E+01  -0.8181818E+01   0.2754949E+00   0.1004083E+00   0.2741073E+00   0.2761551E-01  -0.1547892E-01
   0.7013424E-01
   0.2242005E+01   0.4400184E+01  -0.7272727E+01   0.3991700E+00   0.1169708E+00   0.3964423E+00   0.4658484E-01  -0.2242459E-01
   0.1016047E+00
   0.2242005E+01   0.4400184E+01  -0.6363636E+01   0.5807182E+00   0.1323268E+00   0.5756413E+00   0.7662053E-01  -0.3248691E-01
   0.1471966E+00
   0.2242005E+01   0.4400184E+01  -0.5454545E+01   0.8435153E+00   0.1390899E+00   0.8353692E+00   0.1169465E+00  -0.4706439E-01
   0.2132465E+00
   0.2242005E+01   0.4400184E+01  -0.4545455E+01   0.1225574E+01   0.1430672E+00   0.1213052E+01   0.1747418E+00  -0.6818303E-01
   0.3089341E+00
   0.2242005E+01   0.4400184E+01  -0.3636364E+01   0.1783577E+01   0.1492055E+00   0.1763761E+01   0.2651332E+00  -0.9877801E-01
   0.4475585E+00
   0.2242005E+01   0.4400184E+01  -0.2727273E+01   0.2595508E+01   0.1511907E+00   0.2565900E+01   0.3909234E+00  -0.1431015E+00
   0.6483861E+00
   0.2242005E+01   0.4400184E+01  -0.1818182E+01   0.3783154E+01   0.1537504E+00   0.3738526E+01   0.5793725E+00  -0.2073138E+00
   0.9393287E+00
   0.2242005E+01   0.4400184E+01  -0.9090910E+00   0.5558560E+01   0.1574639E+00   0.5489791E+01   0.8716603E+00  -0.3003393E+00
   0.1360823E+01
   0.2242005E+01   0.4400184E+01   0.0000000E+00   0.5558560E+01   0.1574639E+00   0.5489791E+01   0.8716603E+00  -0.3003393E+00
   0.1360823E+01
   0.2938926E+01   0.4045085E+01  -0.1000000E+02   0.1308274E+00   0.8262985E-01   0.1303810E+00   0.1079795E-01  -0.7375180E-02
   0.3341659E-01
   0.2938926E+01   0.4045085E+01  -0.9090909E+01   0.1893847E+00   0.9481301E-01   0.1885341E+00   0.1792924E-01  -0.1068456E-01
   0.4841121E-01
   0.2938926E+01   0.4045085E+01  -0.8181818E+01   0.2754949E+00   0.1004083E+00   0.2741073E+00   0.2761551E-01  -0.1547892E-01
   0.7013424E-01
   0.2938926E+01   0.4045085E+01  -0.7272727E+01   0.3991700E+00   0.1169708E+00   0.3964423E+00   0.4658484E-01  -0.2242459E-01
   0.1016047E+00
   0.2938926E+01   0.4045085E+01  -0.6363636E+01   0.5807182E+00   0.1323268E+00   0.5756413E+00   0.7662053E-01  -0.3248691E-01
   0.1471966E+00
   0.2938926E+01   0.4045085E+01  -0.5454545E+01   0.8435153E+00   0.1390899E+00   0.8353692E+00   0.1169465E+00  -0.4706439E-01
   0.2132465E+00
   0.2938926E+01   0.4045085E+01  -0.4545455E+01   0.1225574E+01   0.1430672E+00   0.1213052E+01   0.1747418E+00  -0.6818303E-01
   0.3089341E+00
   0.2938926E+01   0.4045085E+01  -0.3636364E+01   0.1783577E+01   0.1492055E+00   0.1763761E+01   0.2651332E+00  -0.9877801E-01
   0.4475585E+00
   0.2938926E+01   0.4045085E+01  -0.2727273E+01   0.2595508E+01   0.1511907E+00   0.2565900E+01   0.3909234E+00  -0.1431015E+00
   0.6483861E+00
   0.2938926E+01   0.4045085E+01  -0.1818182E+01   0.3783154E+01   0.1537504E+00   0.3738526E+01   0.5793725E+00  -0.2073138E+00
   0.9393287E+00
   0.2938926E+01   0.4045085E+01  -0.9090910E+00   0.5558560E+01   0.1574639E+00   0.5489791E+01   0.8716603E+00  -0.3003393E+00
   0.1360823E+01
   0.2938926E+01   0.4045085E+01   0.0000000E+00   0.5558560E+01   0.1574639E+00   0.5489791E+01   0.8716603E+00  -0.3003393E+00
   0.1360823E+01
   0.0000000E+00   0.5000000E+01  -0.1000000E+02   0.2874815E-01   0.7364635E+00   0.2129802E-01   0.1930933E-01   0.1035593E-01
   0.2349769E-01
   0.0000000E+00   0.5000000E+01  -0.9090909E+01   0.4283449E-01   0.1228933E+01   0.1435998E-01   0.4035572E-01   0.1500282E-01
   0.3404152E-01
   0.0000000E+00   0.5000000E+01  -0.8181818E+01   0.6655825E-01   0.1410960E+01   0.1059321E-01   0.6570985E-01   0.2173487E-01
   0.4931659E-01
   0.0000000E+00   0.5000000E+01  -0.7272727E+01   0.1036178E+00   0.1504849E+01   0.6828317E-02   0.1033925E+00   0.3148770E-01
   0.7144585E-01
   0.0000000E+00   0.5000000E+01  -0.6363636E+01   0.1598120E+00   0.1575194E+01  -0.7028514E-03   0.1598105E+00   0.4561679E-01
   0.1035049E+00
   0.0000000E+00   0.5000000E+01  -0.5454545E+01   0.2383752E+00   0.1596033E+01  -0.6015259E-02   0.2382993E+00   0.6608590E-01
   0.1499494E+00
   0.0000000E+00   0.5000000E+01  -0.4545455E+01   0.3527514E+00   0.1619174E+01  -0.1705872E-01   0.3523387E+00   0.9573985E-01
   0.2172345E+00
   0.0000000E+00   0.5000000E+01  -0.3636364E+01   0.5214008E+00   0.1623036E+01  -0.2722540E-01   0.5206895E+00   0.1387001E+00
   0.3147116E+00
   0.0000000E+00   0.5000000E+01  -0.2727273E+01   0.7608653E+00   0.1611174E+01  -0.3071352E-01   0.7602452E+00   0.2009373E+00
   0.4559284E+00
   0.0000000E+00   0.5000000E+01  -0.1818182E+01   0.1110905E+01   0.1592705E+01  -0.2433595E-01   0.1110639E+01   0.2911016E+00
   0.6605119E+00
   0.0000000E+00   0.5000000E+01  -0.9090910E+00   0.1627989E+01   0.1519131E+01   0.8407351E-01   0.1625816E+01   0.4217242E+00
   0.9568957E+00
   0.0000000E+00   0.5000000E+01   0.0000000E+00   0.1627989E+01   0.1519131E+01   0.8407351E-01   0.1625816E+01   0.4217242E+00
   0.9568957E+00
   0.7725425E+00   0.4877642E+01  -0.1000000E+02   0.5823579E-01   0.3359104E+00   0.5498103E-01   0.1919620E-01   0.4274912E-02
   0.2532020E-01
   0.7725425E+00   0.4877642E+01  -0.9090909E+01   0.7675304E-01   0.5056555E+00   0.6714795E-01   0.3717772E-01   0.6193141E-02
   0.3668183E-01
   0.7725425E+00   0.4877642E+01  -0.8181818E+01   0.1079270E+00   0.5818455E+00   0.9016762E-01   0.5931310E-01   0.8972120E-02
   0.5314166E-01
   0.7725425E+00   0.4877642E+01  -0.7272727E+01   0.1558769E+00   0.6474730E+00   0.1243291E+00   0.9402072E-01   0.1299807E-01
   0.7698729E-01
   0.7725425E+00   0.4877642E+01  -0.6363636E+01   0.2267917E+00   0.7030557E+00   0.1730126E+00   0.1466326E+00   0.1883055E-01
   0.1115329E+00
   0.7725425E+00   0.4877642E+01  -0.5454545E+01   0.3306689E+00   0.7247274E+00   0.2475652E+00   0.2192108E+00   0.2728016E-01
   0.1615797E+00
   0.7725425E+00   0.4877642E+01  -0.4545455E+01   0.4798695E+00   0.7422293E+00   0.3536463E+00   0.3243594E+00   0.3952127E-01
   0.2340836E+00
   0.7725425E+00   0.4877642E+01  -0.3636364E+01   0.7032260E+00   0.7542659E+00   0.5124931E+00   0.4815367E+00   0.5725518E-01
   0.3391211E+00
   0.7725425E+00   0.4877642E+01  -0.2727273E+01   0.1030039E+01   0.7525277E+00   0.7518909E+00   0.7040173E+00   0.8294662E-01
   0.4912910E+00
   0.7725425E+00   0.4877642E+01  -0.1818182E+01   0.1514908E+01   0.7484869E+00   0.1110003E+01   0.1030942E+01   0.1201663E+00
   0.7117422E+00
   0.7725425E+00   0.4877642E+01  -0.9090910E+00   0.2289482E+01   0.7231528E+00   0.1716478E+01   0.1515069E+01   0.1740871E+00
   0.1031114E+01
   0.7725425E+00   0.4877642E+01   0.0000000E+00   0.2289482E+01   0.7231528E+00   0.1716478E+01   0.1515069E+01   0.1740871E+00
   0.1031114E+01
   0.1545085E+01   0.4755283E+01  -0.1000000E+02   0.5823579E-01   0.3359104E+00   0.5498103E-01   0.1919620E-01   0.4274912E-02
   0.2532020E-01
   0.1545085E+01   0.4755283E+01  -0.9090909E+01   0.7675304E-01   0.5056555E+00   0.6714795E-01   0.3717772E-01   0.6193141E-02
   0.3668183E-01
   0.1545085E+01   0.4755283E+01  -0.8181818E+01   0.1079270E+00   0.5818455E+00   0.9016762E-01   0.5931310E-01   0.8972120E-02
   0.5314166E-01
   0.1545085E+01   0.4755283E+01  -0.7272727E+01   0.1558769E+00   0.6474730E+00   0.1243291E+00   0.9402072E-01   0.1299807E-01
   0.7698729E-01
   0.1545085E+01   0.4755283E+01  -0.6363636E+01   0.2267917E+00   0.7030557E+00   0.1730126E+00   0.1466326E+00   0.1883055E-01
   0.1115329E+00
   0.1545085E+01   0.4755283E+01  -0.5454545E+01   0.3306689E+00   0.7247274E+00   0.2475652E+00   0.2192108E+00   0.2728016E-01
   0.1615797E+00
   0.1545085E+01   0.4755283E+01  -0.4545455E+01   0.4798695E+00   0.7422293E+00   0.3536463E+00   0.3243594E+00   0.3952127E-01
   0.2340836E+00
   0.1545085E+01   0.4755283E+01  -0.3636364E+01   0.7032260E+00   0.7542659E+00   0.5124931E+00   0.4815367E+00   0.5725518E-01
   0.3391211E+00
   0.1545085E+01   0.4755283E+01  -0.2727273E+01   0.1030039E+01   0.7525277E+00   0.7518909E+00   0.7040173E+00   0.8294662E-01
   0.4912910E+00
   0.1545085E+01   0.4755283E+01  -0.1818182E+01   0.1514908E+01   0.7484869E+00   0.1110003E+01   0.1030942E+01   0.1201663E+00
   0.7117422E+00
   0.1545085E+01   0.4755283E+01  -0.9090910E+00   0.2289482E+01   0.7231528E+00   0.1716478E+01   0.1515069E+01   0.1740871E+00
   0.1031114E+01
   0.1545085E+01   0.4755283E+01   0.0000000E+00   0.2289482E+01   0.7231528E+00   0.1716478E+01   0.1515069E+01   0.1740871E+00
   0.1031114E+01
  -0.1545085E+01   0.4755283E+01  -0.1000000E+02   0.2505285E-01   0.2396350E+01  -0.1841193E-01   0.1698959E-01   0.1218999E-01
   0.8076354E-02
  -0.1545085E+01   0.4755283E+01  -0.9090909E+01   0.6139784E-01   0.2383938E+01  -0.4460244E-01   0.4219379E-01   0.1765985E-01
   0.1170036E-01
  -0.1545085E+01   0.4755283E+01  -0.8181818E+01   0.1050043E+00   0.2394784E+01  -0.7705849E-01   0.7132941E-01   0.2558416E-01
   0.1695053E-01
  -0.1545085E+01   0.4755283E+01  -0.7272727E+01   0.1647901E+00   0.2405697E+01  -0.1221474E+00   0.1106155E+00   0.3706424E-01
   0.2455654E-01
  -0.1545085E+01   0.4755283E+01  -0.6363636E+01   0.2543783E+00   0.2421358E+01  -0.1912037E+00   0.1677780E+00   0.5369564E-01
   0.3557551E-01
  -0.1545085E+01   0.4755283E+01  -0.5454545E+01   0.3779283E+00   0.2421855E+01  -0.2841941E+00   0.2491255E+00   0.7778987E-01
   0.5153889E-01
  -0.1545085E+01   0.4755283E+01  -0.4545455E+01   0.5609950E+00   0.2426492E+01  -0.4235666E+00   0.3678407E+00   0.1126956E+00
   0.7466535E-01
  -0.1545085E+01   0.4755283E+01  -0.3636364E+01   0.8209169E+00   0.2425946E+01  -0.6195206E+00   0.5386081E+00   0.1632642E+00
   0.1081690E+00
  -0.1545085E+01   0.4755283E+01  -0.2727273E+01   0.1186683E+01   0.2419059E+01  -0.8901694E+00   0.7847384E+00   0.2365238E+00
   0.1567065E+00
  -0.1545085E+01   0.4755283E+01  -0.1818182E+01   0.1708122E+01   0.2409926E+01  -0.1270948E+01   0.1141215E+01   0.3426564E+00
   0.2270235E+00
  -0.1545085E+01   0.4755283E+01  -0.9090910E+00   0.2380307E+01   0.2373701E+01  -0.1712337E+01   0.1653409E+01   0.4964126E+00
   0.3288932E+00
  -0.1545085E+01   0.4755283E+01   0.0000000E+00   0.2380307E+01   0.2373701E+01  -0.1712337E+01   0.1653409E+01   0.4964126E+00
   0.3288932E+00
  -0.7725425E+00   0.4877642E+01  -0.1000000E+02   0.2064643E-01   0.1804103E+01  -0.4773362E-02   0.2008706E-01   0.9284320E-02
   0.1129714E-01
  -0.7725425E+00   0.4877642E+01  -0.9090909E+01   0.5170657E-01   0.2090463E+01  -0.2567702E-01   0.4488051E-01   0.1345036E-01
   0.1636637E-01
  -0.7725425E+00   0.4877642E+01  -0.8181818E+01   0.8901986E-01   0.2159399E+01  -0.4942377E-01   0.7403937E-01   0.1948579E-01
   0.2371027E-01
  -0.7725425E+00   0.4877642E+01  -0.7272727E+01   0.1411929E+00   0.2187917E+01  -0.8170687E-01   0.1151496E+00   0.2822942E-01
   0.3434949E-01
  -0.7725425E+00   0.4877642E+01  -0.6363636E+01   0.2195587E+00   0.2213582E+01  -0.1316095E+00   0.1757412E+00   0.4089647E-01
   0.4976273E-01
  -0.7725425E+00   0.4877642E+01  -0.5454545E+01   0.3271855E+00   0.2217682E+01  -0.1971961E+00   0.2610824E+00   0.5924748E-01
   0.7209220E-01
  -0.7725425E+00   0.4877642E+01  -0.4545455E+01   0.4862464E+00   0.2226707E+01  -0.2965527E+00   0.3853467E+00   0.8583291E-01
   0.1044413E+00
  -0.7725425E+00   0.4877642E+01  -0.3636364E+01   0.7136517E+00   0.2225128E+01  -0.4343491E+00   0.5662505E+00   0.1243477E+00
   0.1513060E+00
  -0.7725425E+00   0.4877642E+01  -0.2727273E+01   0.1033113E+01   0.2215988E+01  -0.6212646E+00   0.8254411E+00   0.1801448E+00
   0.2191998E+00