VARIABLES="X" "Y" "Z" "Module" "Phase" "Real" "Imag" "Re(NVEL)" "Im(NVEL)"
 ZONE N=        1262 , E=        1148  , F=FEPOINT,ET=QUADRILATERAL
   0.4755283E+01   0.1545085E+01  -0.1000000E+02   0.1294835E+00  -0.3244248E-01   0.1294153E+00  -0.4200029E-02  -0.3253403E-01
  -0.9528021E-02
   0.4755283E+01   0.1545085E+01  -0.9090909E+01   0.2813728E+00  -0.1488810E+00   0.2782601E+00  -0.4173649E-01  -0.2536400E-01
   0.5330508E-01
   0.4755283E+01   0.1545085E+01  -0.8181818E+01   0.4155554E+00  -0.1548524E+00   0.4105830E+00  -0.6409291E-01  -0.3674531E-01
   0.7722408E-01
   0.4755283E+01   0.1545085E+01  -0.7272727E+01   0.6063750E+00  -0.1509546E+00   0.5994793E+00  -0.9118786E-01  -0.5323359E-01
   0.1118759E+00
   0.4755283E+01   0.1545085E+01  -0.6363636E+01   0.8869687E+00  -0.1469009E+00   0.8774156E+00  -0.1298284E+00  -0.7712048E-01
   0.1620767E+00
   0.4755283E+01   0.1545085E+01  -0.5454545E+01   0.1289727E+01  -0.1442757E+00   0.1276327E+01  -0.1854313E+00  -0.1117259E+00
   0.2348035E+00
   0.4755283E+01   0.1545085E+01  -0.4545455E+01   0.1876964E+01  -0.1432661E+00   0.1857735E+01  -0.2679864E+00  -0.1618593E+00
   0.3401641E+00
   0.4755283E+01   0.1545085E+01  -0.3636364E+01   0.2731151E+01  -0.1402747E+00   0.2704324E+01  -0.3818561E+00  -0.2344885E+00
   0.4928020E+00
   0.4755283E+01   0.1545085E+01  -0.2727273E+01   0.3967810E+01  -0.1384256E+00   0.3929856E+01  -0.5474941E+00  -0.3397078E+00
   0.7139313E+00
   0.4755283E+01   0.1545085E+01  -0.1818182E+01   0.5769938E+01  -0.1359034E+00   0.5716736E+01  -0.7817426E+00  -0.4921409E+00
   0.1034285E+01
   0.4755283E+01   0.1545085E+01  -0.9090910E+00   0.8406831E+01  -0.1297849E+00   0.8336127E+01  -0.1088019E+01  -0.7129736E+00
   0.1498388E+01
   0.4755283E+01   0.1545085E+01   0.0000000E+00   0.8406831E+01  -0.1297849E+00   0.8336127E+01  -0.1088019E+01  -0.7129736E+00
   0.1498388E+01
   0.4877644E+01   0.7725425E+00  -0.1000000E+02   0.1577513E+00  -0.2528556E+00   0.1527351E+00  -0.3946461E-01  -0.9952690E-02
   0.3677028E-01
   0.4877644E+01   0.7725425E+00  -0.9090909E+01   0.2349116E+00  -0.2793700E+00   0.2258039E+00  -0.6477690E-01  -0.1441864E-01
   0.5326977E-01
   0.4877644E+01   0.7725425E+00  -0.8181818E+01   0.3445134E+00  -0.2880944E+00   0.3303150E+00  -0.9788511E-01  -0.2088855E-01
   0.7717291E-01
   0.4877644E+01   0.7725425E+00  -0.7272727E+01   0.5019585E+00  -0.2848844E+00   0.4817267E+00  -0.1410737E+00  -0.3026163E-01
   0.1118018E+00
   0.4877644E+01   0.7725425E+00  -0.6363636E+01   0.7336670E+00  -0.2816092E+00   0.7047675E+00  -0.2038874E+00  -0.4384057E-01
   0.1619693E+00
   0.4877644E+01   0.7725425E+00  -0.5454545E+01   0.1065845E+01  -0.2791753E+00   0.1024579E+01  -0.2937075E+00  -0.6351265E-01
   0.2346479E+00
   0.4877644E+01   0.7725425E+00  -0.4545455E+01   0.1549265E+01  -0.2788246E+00   0.1489432E+01  -0.4263977E+00  -0.9201194E-01
   0.3399388E+00
   0.4877644E+01   0.7725425E+00  -0.3636364E+01   0.2255394E+01  -0.2753370E+00   0.2170441E+01  -0.6131768E+00  -0.1332994E+00
   0.4924755E+00
   0.4877644E+01   0.7725425E+00  -0.2727273E+01   0.3277526E+01  -0.2728729E+00   0.3156260E+01  -0.8832904E+00  -0.1931132E+00
   0.7134582E+00
   0.4877644E+01   0.7725425E+00  -0.1818182E+01   0.4770001E+01  -0.2693474E+00   0.4598017E+01  -0.1269309E+01  -0.2797666E+00
   0.1033600E+01
   0.4877644E+01   0.7725425E+00  -0.9090910E+00   0.6970940E+01  -0.2596368E+00   0.6737297E+01  -0.1789646E+01  -0.4053031E+00
   0.1497395E+01
   0.4877644E+01   0.7725425E+00   0.0000000E+00   0.6970940E+01  -0.2596368E+00   0.6737297E+01  -0.1789646E+01  -0.4053031E+00
   0.1497395E+01
   0.5000000E+01   0.0000000E+00  -0.1000000E+02   0.1213451E+00  -0.1257641E+00   0.1203867E+00  -0.1522066E-01  -0.3344107E-01
  -0.5562488E-02
   0.5000000E+01   0.0000000E+00  -0.9090909E+01   0.2349116E+00  -0.2793700E+00   0.2258039E+00  -0.6477690E-01  -0.1441864E-01
   0.5326977E-01
   0.5000000E+01   0.0000000E+00  -0.8181818E+01   0.3445134E+00  -0.2880944E+00   0.3303150E+00  -0.9788511E-01  -0.2088855E-01
   0.7717291E-01
   0.5000000E+01   0.0000000E+00  -0.7272727E+01   0.5019585E+00  -0.2848844E+00   0.4817267E+00  -0.1410737E+00  -0.3026163E-01
   0.1118018E+00
   0.5000000E+01   0.0000000E+00  -0.6363636E+01   0.7336670E+00  -0.2816092E+00   0.7047675E+00  -0.2038874E+00  -0.4384057E-01
   0.1619693E+00
   0.5000000E+01   0.0000000E+00  -0.5454545E+01   0.1065845E+01  -0.2791753E+00   0.1024579E+01  -0.2937075E+00  -0.6351265E-01
   0.2346479E+00
   0.5000000E+01   0.0000000E+00  -0.4545455E+01   0.1549265E+01  -0.2788246E+00   0.1489432E+01  -0.4263977E+00  -0.9201194E-01
   0.3399388E+00
   0.5000000E+01   0.0000000E+00  -0.3636364E+01   0.2255394E+01  -0.2753370E+00   0.2170441E+01  -0.6131768E+00  -0.1332994E+00
   0.4924755E+00
   0.5000000E+01   0.0000000E+00  -0.2727273E+01   0.3277526E+01  -0.2728729E+00   0.3156260E+01  -0.8832904E+00  -0.1931132E+00
   0.7134582E+00
   0.5000000E+01   0.0000000E+00  -0.1818182E+01   0.4770001E+01  -0.2693474E+00   0.4598017E+01  -0.1269309E+01  -0.2797666E+00
   0.1033600E+01
   0.5000000E+01   0.0000000E+00  -0.9090910E+00   0.6970940E+01  -0.2596368E+00   0.6737297E+01  -0.1789646E+01  -0.4053031E+00
   0.1497395E+01
   0.5000000E+01   0.0000000E+00   0.0000000E+00   0.6970940E+01  -0.2596368E+00   0.6737297E+01  -0.1789646E+01  -0.4053031E+00
   0.1497395E+01
   0.4045086E+01   0.2938926E+01  -0.1000000E+02   0.1223862E+00   0.1382193E-01   0.1223746E+00   0.1691560E-02  -0.3304958E-01
  -0.7547951E-02
   0.4045086E+01   0.2938926E+01  -0.9090909E+01   0.2699033E+00  -0.3810871E-01   0.2697073E+00  -0.1028318E-01  -0.2369323E-01
   0.5195085E-01
   0.4045086E+01   0.2938926E+01  -0.8181818E+01   0.3979301E+00  -0.4128714E-01   0.3975909E+00  -0.1642472E-01  -0.3432483E-01
   0.7526217E-01
   0.4045086E+01   0.2938926E+01  -0.7272727E+01   0.5798867E+00  -0.3416136E-01   0.5795484E+00  -0.1980586E-01  -0.4972701E-01
   0.1090337E+00
   0.4045086E+01   0.2938926E+01  -0.6363636E+01   0.8473078E+00  -0.2708355E-01   0.8469971E+00  -0.2294530E-01  -0.7204042E-01
   0.1579591E+00
   0.4045086E+01   0.2938926E+01  -0.5454545E+01   0.1232010E+01  -0.2348835E-01   0.1231670E+01  -0.2893521E-01  -0.1043663E+00
   0.2288382E+00
   0.4045086E+01   0.2938926E+01  -0.4545455E+01   0.1792949E+01  -0.2169099E-01   0.1792527E+01  -0.3888779E-01  -0.1511974E+00
   0.3315221E+00
   0.4045086E+01   0.2938926E+01  -0.3636364E+01   0.2608410E+01  -0.1796782E-01   0.2607989E+01  -0.4686492E-01  -0.2190424E+00
   0.4802822E+00
   0.4045086E+01   0.2938926E+01  -0.2727273E+01   0.3790392E+01  -0.1622358E-01   0.3789894E+01  -0.6149104E-01  -0.3173307E+00
   0.6957936E+00
   0.4045086E+01   0.2938926E+01  -0.1818182E+01   0.5513086E+01  -0.1386392E-01   0.5512557E+01  -0.7643056E-01  -0.4597227E+00
   0.1008009E+01
   0.4045086E+01   0.2938926E+01  -0.9090910E+00   0.8038332E+01  -0.8963951E-02   0.8038009E+01  -0.7205424E-01  -0.6660088E+00
   0.1460321E+01
   0.4045086E+01   0.2938926E+01   0.0000000E+00   0.8038332E+01  -0.8963951E-02   0.8038009E+01  -0.7205424E-01  -0.6660088E+00
   0.1460321E+01
   0.4400185E+01   0.2242005E+01  -0.1000000E+02   0.1865609E+00  -0.1273305E+00   0.1850505E+00  -0.2369075E-01  -0.1750790E-01
   0.3679466E-01
   0.4400185E+01   0.2242005E+01  -0.9090909E+01   0.2813728E+00  -0.1488810E+00   0.2782601E+00  -0.4173649E-01  -0.2536400E-01
   0.5330508E-01
   0.4400185E+01   0.2242005E+01  -0.8181818E+01   0.4155554E+00  -0.1548524E+00   0.4105830E+00  -0.6409291E-01  -0.3674531E-01
   0.7722408E-01
   0.4400185E+01   0.2242005E+01  -0.7272727E+01   0.6063750E+00  -0.1509546E+00   0.5994793E+00  -0.9118786E-01  -0.5323359E-01
   0.1118759E+00
   0.4400185E+01   0.2242005E+01  -0.6363636E+01   0.8869687E+00  -0.1469009E+00   0.8774156E+00  -0.1298284E+00  -0.7712048E-01
   0.1620767E+00
   0.4400185E+01   0.2242005E+01  -0.5454545E+01   0.1289727E+01  -0.1442757E+00   0.1276327E+01  -0.1854313E+00  -0.1117259E+00
   0.2348035E+00
   0.4400185E+01   0.2242005E+01  -0.4545455E+01   0.1876964E+01  -0.1432661E+00   0.1857735E+01  -0.2679864E+00  -0.1618593E+00
   0.3401641E+00
   0.4400185E+01   0.2242005E+01  -0.3636364E+01   0.2731151E+01  -0.1402747E+00   0.2704324E+01  -0.3818561E+00  -0.2344885E+00
   0.4928020E+00
   0.4400185E+01   0.2242005E+01  -0.2727273E+01   0.3967810E+01  -0.1384256E+00   0.3929856E+01  -0.5474941E+00  -0.3397078E+00
   0.7139313E+00
   0.4400185E+01   0.2242005E+01  -0.1818182E+01   0.5769938E+01  -0.1359034E+00   0.5716736E+01  -0.7817426E+00  -0.4921409E+00
   0.1034285E+01
   0.4400185E+01   0.2242005E+01  -0.9090910E+00   0.8406831E+01  -0.1297849E+00   0.8336127E+01  -0.1088019E+01  -0.7129736E+00
   0.1498388E+01
   0.4400185E+01   0.2242005E+01   0.0000000E+00   0.8406831E+01  -0.1297849E+00   0.8336127E+01  -0.1088019E+01  -0.7129736E+00
   0.1498388E+01
   0.2938927E+01   0.4045085E+01  -0.1000000E+02   0.9795371E-01  -0.3107830E-02   0.9795325E-01  -0.3044230E-03  -0.3389871E-01
   0.3512071E-03
   0.2938927E+01   0.4045085E+01  -0.9090909E+01   0.1893847E+00   0.9481300E-01   0.1885341E+00   0.1792924E-01  -0.1068456E-01
   0.4841121E-01
   0.2938927E+01   0.4045085E+01  -0.8181818E+01   0.2754949E+00   0.1004086E+00   0.2741073E+00   0.2761560E-01  -0.1547892E-01
   0.7013423E-01
   0.2938927E+01   0.4045085E+01  -0.7272727E+01   0.3991698E+00   0.1169711E+00   0.3964422E+00   0.4658492E-01  -0.2242459E-01
   0.1016047E+00
   0.2938927E+01   0.4045085E+01  -0.6363636E+01   0.5807180E+00   0.1323271E+00   0.5756412E+00   0.7662067E-01  -0.3248691E-01
   0.1471966E+00
   0.2938927E+01   0.4045085E+01  -0.5454545E+01   0.8435149E+00   0.1390906E+00   0.8353686E+00   0.1169471E+00  -0.4706438E-01
   0.2132465E+00
   0.2938927E+01   0.4045085E+01  -0.4545455E+01   0.1225573E+01   0.1430676E+00   0.1213052E+01   0.1747423E+00  -0.6818304E-01
   0.3089341E+00
   0.2938927E+01   0.4045085E+01  -0.3636364E+01   0.1783576E+01   0.1492061E+00   0.1763759E+01   0.2651341E+00  -0.9877801E-01
   0.4475584E+00
   0.2938927E+01   0.4045085E+01  -0.2727273E+01   0.2595509E+01   0.1511915E+00   0.2565900E+01   0.3909254E+00  -0.1431015E+00
   0.6483861E+00
   0.2938927E+01   0.4045085E+01  -0.1818182E+01   0.3783153E+01   0.1537512E+00   0.3738525E+01   0.5793753E+00  -0.2073137E+00
   0.9393287E+00
   0.2938927E+01   0.4045085E+01  -0.9090910E+00   0.5558560E+01   0.1574646E+00   0.5489790E+01   0.8716637E+00  -0.3003393E+00
   0.1360823E+01
   0.2938927E+01   0.4045085E+01   0.0000000E+00   0.5558560E+01   0.1574646E+00   0.5489790E+01   0.8716637E+00  -0.3003393E+00
   0.1360823E+01
   0.3492004E+01   0.3492005E+01  -0.1000000E+02   0.1801166E+00  -0.2537887E-01   0.1800586E+00  -0.4570667E-02  -0.1635462E-01
   0.3585988E-01
   0.3492004E+01   0.3492005E+01  -0.9090909E+01   0.2699033E+00  -0.3810871E-01   0.2697073E+00  -0.1028318E-01  -0.2369323E-01
   0.5195085E-01
   0.3492004E+01   0.3492005E+01  -0.8181818E+01   0.3979301E+00  -0.4128714E-01   0.3975909E+00  -0.1642472E-01  -0.3432483E-01
   0.7526217E-01
   0.3492004E+01   0.3492005E+01  -0.7272727E+01   0.5798867E+00  -0.3416136E-01   0.5795484E+00  -0.1980586E-01  -0.4972701E-01
   0.1090337E+00
   0.3492004E+01   0.3492005E+01  -0.6363636E+01   0.8473078E+00  -0.2708355E-01   0.8469971E+00  -0.2294530E-01  -0.7204042E-01
   0.1579591E+00
   0.3492004E+01   0.3492005E+01  -0.5454545E+01   0.1232010E+01  -0.2348835E-01   0.1231670E+01  -0.2893521E-01  -0.1043663E+00
   0.2288382E+00
   0.3492004E+01   0.3492005E+01  -0.4545455E+01   0.1792949E+01  -0.2169099E-01   0.1792527E+01  -0.3888779E-01  -0.1511974E+00
   0.3315221E+00
   0.3492004E+01   0.3492005E+01  -0.3636364E+01   0.2608410E+01  -0.1796782E-01   0.2607989E+01  -0.4686492E-01  -0.2190424E+00
   0.4802822E+00
   0.3492004E+01   0.3492005E+01  -0.2727273E+01   0.3790392E+01  -0.1622358E-01   0.3789894E+01  -0.6149104E-01  -0.3173307E+00
   0.6957936E+00
   0.3492004E+01   0.3492005E+01  -0.1818182E+01   0.5513086E+01  -0.1386392E-01   0.5512557E+01  -0.7643056E-01  -0.4597227E+00
   0.1008009E+01
   0.3492004E+01   0.3492005E+01  -0.9090910E+00   0.8038332E+01  -0.8963951E-02   0.8038009E+01  -0.7205424E-01  -0.6660088E+00
   0.1460321E+01
   0.3492004E+01   0.3492005E+01   0.0000000E+00   0.8038332E+01  -0.8963951E-02   0.8038009E+01  -0.7205424E-01  -0.6660088E+00
   0.1460321E+01
   0.1545086E+01   0.4755283E+01  -0.1000000E+02   0.6399059E-01  -0.1611143E+00   0.6316186E-01  -0.1026526E-01  -0.3126673E-01
   0.1310107E-01
   0.1545086E+01   0.4755283E+01  -0.9090909E+01   0.7675294E-01   0.5056552E+00   0.6714787E-01   0.3717764E-01   0.6193141E-02
   0.3668183E-01
   0.1545086E+01   0.4755283E+01  -0.8181818E+01   0.1079269E+00   0.5818454E+00   0.9016755E-01   0.5931304E-01   0.8972120E-02
   0.5314166E-01
   0.1545086E+01   0.4755283E+01  -0.7272727E+01   0.1558765E+00   0.6474742E+00   0.1243286E+00   0.9402061E-01   0.1299807E-01
   0.7698729E-01
   0.1545086E+01   0.4755283E+01  -0.6363636E+01   0.2267914E+00   0.7030562E+00   0.1730123E+00   0.1466324E+00   0.1883054E-01
   0.1115329E+00
   0.1545086E+01   0.4755283E+01  -0.5454545E+01   0.3306686E+00   0.7247284E+00   0.2475648E+00   0.2192108E+00   0.2728016E-01
   0.1615798E+00
   0.1545086E+01   0.4755283E+01  -0.4545455E+01   0.4798687E+00   0.7422321E+00   0.3536449E+00   0.3243599E+00   0.3952127E-01
   0.2340835E+00
   0.1545086E+01   0.4755283E+01  -0.3636364E+01   0.7032260E+00   0.7542664E+00   0.5124929E+00   0.4815370E+00   0.5725518E-01
   0.3391211E+00
   0.1545086E+01   0.4755283E+01  -0.2727273E+01   0.1030038E+01   0.7525290E+00   0.7518893E+00   0.7040176E+00   0.8294663E-01
   0.4912910E+00
   0.1545086E+01   0.4755283E+01  -0.1818182E+01   0.1514907E+01   0.7484885E+00   0.1110000E+01   0.1030943E+01   0.1201663E+00
   0.7117422E+00
   0.1545086E+01   0.4755283E+01  -0.9090910E+00   0.2289481E+01   0.7231548E+00   0.1716474E+01   0.1515071E+01   0.1740871E+00
   0.1031114E+01
   0.1545086E+01   0.4755283E+01   0.0000000E+00   0.2289481E+01   0.7231548E+00   0.1716474E+01   0.1515071E+01   0.1740871E+00
   0.1031114E+01
   0.2242004E+01   0.4400184E+01  -0.1000000E+02   0.1308275E+00   0.8262954E-01   0.1303811E+00   0.1079792E-01  -0.7375180E-02
   0.3341659E-01
   0.2242004E+01   0.4400184E+01  -0.9090909E+01   0.1893847E+00   0.9481300E-01   0.1885341E+00   0.1792924E-01  -0.1068456E-01
   0.4841121E-01
   0.2242004E+01   0.4400184E+01  -0.8181818E+01   0.2754949E+00   0.1004086E+00   0.2741073E+00   0.2761560E-01  -0.1547892E-01
   0.7013423E-01
   0.2242004E+01   0.4400184E+01  -0.7272727E+01   0.3991698E+00   0.1169711E+00   0.3964422E+00   0.4658492E-01  -0.2242459E-01
   0.1016047E+00
   0.2242004E+01   0.4400184E+01  -0.6363636E+01   0.5807180E+00   0.1323271E+00   0.5756412E+00   0.7662067E-01  -0.3248691E-01
   0.1471966E+00
   0.2242004E+01   0.4400184E+01  -0.5454545E+01   0.8435149E+00   0.1390906E+00   0.8353686E+00   0.1169471E+00  -0.4706438E-01
   0.2132465E+00
   0.2242004E+01   0.4400184E+01  -0.4545455E+01   0.1225573E+01   0.1430676E+00   0.1213052E+01   0.1747423E+00  -0.6818304E-01
   0.3089341E+00
   0.2242004E+01   0.4400184E+01  -0.3636364E+01   0.1783576E+01   0.1492061E+00   0.1763759E+01   0.2651341E+00  -0.9877801E-01
   0.4475584E+00
   0.2242004E+01   0.4400184E+01  -0.2727273E+01   0.2595509E+01   0.1511915E+00   0.2565900E+01   0.3909254E+00  -0.1431015E+00
   0.6483861E+00
   0.2242004E+01   0.4400184E+01  -0.1818182E+01   0.3783153E+01   0.1537512E+00   0.3738525E+01   0.5793753E+00  -0.2073137E+00
   0.9393287E+00
   0.2242004E+01   0.4400184E+01  -0.9090910E+00   0.5558560E+01   0.1574646E+00   0.5489790E+01   0.8716637E+00  -0.3003393E+00
   0.1360823E+01
   0.2242004E+01   0.4400184E+01   0.0000000E+00   0.5558560E+01   0.1574646E+00   0.5489790E+01   0.8716637E+00  -0.3003393E+00
   0.1360823E+01
   0.0000000E+00   0.5000000E+01  -0.1000000E+02   0.3919645E-01  -0.6652642E+00   0.3083795E-01  -0.2419467E-01  -0.2115463E-01
   0.2649014E-01
   0.0000000E+00   0.5000000E+01  -0.9090909E+01   0.5170656E-01   0.2090465E+01  -0.2567709E-01   0.4488046E-01   0.1345036E-01
   0.1636637E-01
   0.0000000E+00   0.5000000E+01  -0.8181818E+01   0.8902000E-01   0.2159401E+01  -0.4942401E-01   0.7403937E-01   0.1948579E-01
   0.2371027E-01
   0.0000000E+00   0.5000000E+01  -0.7272727E+01   0.1411930E+00   0.2187917E+01  -0.8170682E-01   0.1151497E+00   0.2822942E-01
   0.3434950E-01
   0.0000000E+00   0.5000000E+01  -0.6363636E+01   0.2195590E+00   0.2213585E+01  -0.1316102E+00   0.1757410E+00   0.4089648E-01
   0.4976274E-01
   0.0000000E+00   0.5000000E+01  -0.5454545E+01   0.3271858E+00   0.2217684E+01  -0.1971967E+00   0.2610824E+00   0.5924748E-01
   0.7209221E-01
   0.0000000E+00   0.5000000E+01  -0.4545455E+01   0.4862472E+00   0.2226708E+01  -0.2965533E+00   0.3853472E+00   0.8583292E-01
   0.1044413E+00
   0.0000000E+00   0.5000000E+01  -0.3636364E+01   0.7136520E+00   0.2225130E+01  -0.4343507E+00   0.5662497E+00   0.1243477E+00
   0.1513060E+00
   0.0000000E+00   0.5000000E+01  -0.2727273E+01   0.1033113E+01   0.2215989E+01  -0.6212654E+00   0.8254406E+00   0.1801448E+00
   0.2191998E+00
   0.0000000E+00   0.5000000E+01  -0.1818182E+01   0.1490324E+01   0.2202862E+01  -0.8805023E+00   0.1202406E+01   0.2609791E+00
   0.3175587E+00
   0.0000000E+00   0.5000000E+01  -0.9090910E+00   0.2090361E+01   0.2151472E+01  -0.1146749E+01   0.1747735E+01   0.3780852E+00
   0.4600532E+00
   0.0000000E+00   0.5000000E+01   0.0000000E+00   0.2090361E+01   0.2151472E+01  -0.1146749E+01   0.1747735E+01   0.3780852E+00
   0.4600532E+00
   0.7725410E+00   0.4877642E+01  -0.1000000E+02   0.5823574E-01   0.3359101E+00   0.5498099E-01   0.1919616E-01   0.4274912E-02
   0.2532020E-01
   0.7725410E+00   0.4877642E+01  -0.9090909E+01   0.7675294E-01   0.5056552E+00   0.6714787E-01   0.3717764E-01   0.6193141E-02
   0.3668183E-01
   0.7725410E+00   0.4877642E+01  -0.8181818E+01   0.1079269E+00   0.5818454E+00   0.9016755E-01   0.5931304E-01   0.8972120E-02
   0.5314166E-01
   0.7725410E+00   0.4877642E+01  -0.7272727E+01   0.1558765E+00   0.6474742E+00   0.1243286E+00   0.9402061E-01   0.1299807E-01
   0.7698729E-01
   0.7725410E+00   0.4877642E+01  -0.6363636E+01   0.2267914E+00   0.7030562E+00   0.1730123E+00   0.1466324E+00   0.1883054E-01
   0.1115329E+00
   0.7725410E+00   0.4877642E+01  -0.5454545E+01   0.3306686E+00   0.7247284E+00   0.2475648E+00   0.2192108E+00   0.2728016E-01
   0.1615798E+00
   0.7725410E+00   0.4877642E+01  -0.4545455E+01   0.4798687E+00   0.7422321E+00   0.3536449E+00   0.3243599E+00   0.3952127E-01
   0.2340835E+00
   0.7725410E+00   0.4877642E+01  -0.3636364E+01   0.7032260E+00   0.7542664E+00   0.5124929E+00   0.4815370E+00   0.5725518E-01
   0.3391211E+00
   0.7725410E+00   0.4877642E+01  -0.2727273E+01   0.1030038E+01   0.7525290E+00   0.7518893E+00   0.7040176E+00   0.8294663E-01
   0.4912910E+00
   0.7725410E+00   0.4877642E+01  -0.1818182E+01   0.1514907E+01   0.7484885E+00   0.1110000E+01   0.1030943E+01   0.1201663E+00
   0.7117422E+00
   0.7725410E+00   0.4877642E+01  -0.9090910E+00   0.2289481E+01   0.7231548E+00   0.1716474E+01   0.1515071E+01   0.1740871E+00
   0.1031114E+01
   0.7725410E+00   0.4877642E+01   0.0000000E+00   0.2289481E+01   0.7231548E+00   0.1716474E+01   0.1515071E+01   0.1740871E+00
   0.1031114E+01
  -0.1545086E+01   0.4755283E+01  -0.1000000E+02   0.3702118E-01  -0.1273335E+01   0.1085068E-01  -0.3539535E-01  -0.3687659E-02
   0.3369937E-01
  -0.1545086E+01   0.4755283E+01  -0.9090909E+01   0.5355455E-01   0.2359942E+01  -0.3801044E-01   0.3772661E-01   0.2975747E-02
   0.8461007E-03
  -0.1545086E+01   0.4755283E+01  -0.8181818E+01   0.9289772E-01   0.2358706E+01  -0.6585336E-01   0.6552344E-01   0.4311021E-02
   0.1225762E-02
  -0.1545086E+01   0.4755283E+01  -0.7272727E+01   0.1460209E+00   0.2374916E+01  -0.1051672E+00   0.1013014E+00   0.6245455E-02
   0.1775784E-02
  -0.1545086E+01   0.4755283E+01  -0.6363636E+01   0.2255169E+00   0.2398718E+01  -0.1660993E+00   0.1525414E+00   0.9047898E-02
   0.2572609E-02
  -0.1545086E+01   0.4755283E+01  -0.5454545E+01   0.3356145E+00   0.2400840E+01  -0.2476704E+00   0.2264872E+00   0.1310787E-01
   0.3726988E-02
  -0.1545086E+01   0.4755283E+01  -0.4545455E+01   0.4989977E+00   0.2406687E+01  -0.3702035E+00   0.3345865E+00   0.1898961E-01
   0.5399356E-02
  -0.1545086E+01   0.4755283E+01  -0.3636364E+01   0.7297373E+00   0.2409031E+01  -0.5425330E+00   0.4880312E+00   0.2751059E-01
   0.7822146E-02
  -0.1545086E+01   0.4755283E+01  -0.2727273E+01   0.1054803E+01   0.2402080E+01  -0.7792858E+00   0.7108614E+00   0.3985507E-01
   0.1133208E-01
  -0.1545086E+01   0.4755283E+01  -0.1818182E+01   0.1516927E+01   0.2393371E+01  -0.1111756E+01   0.1032021E+01   0.5773880E-01
   0.1641700E-01
  -0.1545086E+01   0.4755283E+01  -0.9090910E+00   0.2109542E+01   0.2357946E+01  -0.1494283E+01   0.1489056E+01   0.8364727E-01
   0.2378361E-01
  -0.1545086E+01   0.4755283E+01   0.0000000E+00   0.2109542E+01   0.2357946E+01  -0.1494283E+01   0.1489056E+01   0.8364727E-01
   0.2378361E-01
  -0.7725410E+00   0.4877642E+01  -0.1000000E+02   0.2064641E-01   0.1804105E+01  -0.4773401E-02   0.2008703E-01   0.9284321E-02
   0.1129714E-01
  -0.7725410E+00   0.4877642E+01  -0.9090909E+01   0.5170656E-01   0.2090465E+01  -0.2567709E-01   0.4488046E-01   0.1345036E-01
   0.1636637E-01
  -0.7725410E+00   0.4877642E+01  -0.8181818E+01   0.8902000E-01   0.2159401E+01  -0.4942401E-01   0.7403937E-01   0.1948579E-01
   0.2371027E-01
  -0.7725410E+00   0.4877642E+01  -0.7272727E+01   0.1411930E+00   0.2187917E+01  -0.8170682E-01   0.1151497E+00   0.2822942E-01
   0.3434950E-01
  -0.7725410E+00   0.4877642E+01  -0.6363636E+01   0.2195590E+00   0.2213585E+01  -0.1316102E+00   0.1757410E+00   0.4089648E-01
   0.4976274E-01
  -0.7725410E+00   0.4877642E+01  -0.5454545E+01   0.3271858E+00   0.2217684E+01  -0.1971967E+00   0.2610824E+00   0.5924748E-01
   0.7209221E-01
  -0.7725410E+00   0.4877642E+01  -0.4545455E+01   0.4862472E+00   0.2226708E+01  -0.2965533E+00   0.3853472E+00   0.8583292E-01
   0.1044413E+00
  -0.7725410E+00   0.4877642E+01  -0.3636364E+01   0.7136520E+00   0.2225130E+01  -0.4343507E+00   0.5662497E+00   0.1243477E+00
   0.1513060E+00
  -0.7725410E+00   0.4877642E+01  -0.2727273E+01   0.1033113E+01   0.2215989E+01  -0.6212654E+00   0.8254406E+00   0.1801448E+00
   0.2191998E+00
  -0.7725410E+00   0.4877642E+01  -0.1818182E+01   0.1490324E+01   0.2202862E+01  -0.8805023E+00   0.1202406E+01   0.2609791E+00
   0.3175587E+00
  -0.7725410E+00   0.4877642E+01  -0.9090910E+00   0.2090361E+01   0.2151472E+01  -0.1146749E+01   0.1747735E+01   0.3780852E+00
   0.4600532E+00
  -0.7725410E+00   0.4877642E+01   0.0000000E+00   0.2090361E+01   0.2151472E+01  -0.1146749E+01   0.1747735E+01   0.3780852E+00
   0.4600532E+00
  -0.2938927E+01   0.4045085E+01  -0.1000000E+02   0.3941470E-01  -0.1473622E+01   0.3824075E-02  -0.3922875E-01   0.1521224E-01
   0.3029577E-01
  -0.2938927E+01   0.4045085E+01  -0.9090909E+01   0.2166031E-01   0.6112463E+00   0.1773835E-01   0.1243060E-01  -0.1434693E-01
   0.5314320E-02
  -0.2938927E+01   0.4045085E+01  -0.8181818E+01   0.3545107E-01   0.9029595E+00   0.2195445E-01   0.2783487E-01  -0.2078467E-01
   0.7698955E-02
  -0.2938927E+01   0.4045085E+01  -0.7272727E+01   0.5170202E-01   0.1041613E+01   0.2610064E-01   0.4463021E-01  -0.3011113E-01
   0.1115362E-01
  -0.2938927E+01   0.4045085E+01  -0.6363636E+01   0.7308689E-01   0.1167606E+01   0.2867597E-01   0.6722635E-01  -0.4362256E-01
   0.1615845E-01
  -0.2938927E+01   0.4045085E+01  -0.5454545E+01   0.1083940E+00   0.1221793E+01   0.3706655E-01   0.1018593E+00  -0.6319679E-01
   0.2340904E-01
  -0.2938927E+01   0.4045085E+01  -0.4545455E+01   0.1597171E+00   0.1273692E+01   0.4675755E-01   0.1527196E+00  -0.9155435E-01
   0.3391311E-01
  -0.2938927E+01   0.4045085E+01  -0.3636364E+01   0.2304014E+00   0.1291228E+01   0.6357704E-01   0.2214560E+00  -0.1326365E+00
   0.4913054E-01
  -0.2938927E+01   0.4045085E+01  -0.2727273E+01   0.3391844E+00   0.1275917E+01   0.9857515E-01   0.3245443E+00  -0.1921529E+00
   0.7117631E-01
  -0.2938927E+01   0.4045085E+01  -0.1818182E+01   0.4966238E+00   0.1247041E+01   0.1579903E+00   0.4708230E+00  -0.2783754E+00
   0.1031144E+00
  -0.2938927E+01   0.4045085E+01  -0.9090910E+00   0.7480312E+00   0.1139247E+01   0.3128855E+00   0.6794508E+00  -0.4032875E+00
   0.1493838E+00
  -0.2938927E+01   0.4045085E+01   0.0000000E+00   0.7480312E+00   0.1139247E+01   0.3128855E+00   0.6794508E+00  -0.4032875E+00
   0.1493838E+00
  -0.2242004E+01   0.4400184E+01  -0.1000000E+02   0.2150381E-01   0.2477490E+01  -0.1693360E-01   0.1325394E-01   0.2054056E-02
   0.5840341E-03
  -0.2242004E+01   0.4400184E+01  -0.9090909E+01   0.5355455E-01   0.2359942E+01  -0.3801044E-01   0.3772661E-01   0.2975747E-02
   0.8461007E-03
  -0.2242004E+01   0.4400184E+01  -0.8181818E+01   0.9289772E-01   0.2358706E+01  -0.6585336E-01   0.6552344E-01   0.4311021E-02
   0.1225762E-02
  -0.2242004E+01   0.4400184E+01  -0.7272727E+01   0.1460209E+00   0.2374916E+01  -0.1051672E+00   0.1013014E+00   0.6245455E-02
   0.1775784E-02
  -0.2242004E+01   0.4400184E+01  -0.6363636E+01   0.2255169E+00   0.2398718E+01  -0.1660993E+00   0.1525414E+00   0.9047898E-02
   0.2572609E-02
  -0.2242004E+01   0.4400184E+01  -0.5454545E+01   0.3356145E+00   0.2400840E+01  -0.2476704E+00   0.2264872E+00   0.1310787E-01
   0.3726988E-02
  -0.2242004E+01   0.4400184E+01  -0.4545455E+01   0.4989977E+00   0.2406687E+01  -0.3702035E+00   0.3345865E+00   0.1898961E-01
   0.5399356E-02
  -0.2242004E+01   0.4400184E+01  -0.3636364E+01   0.7297373E+00   0.2409031E+01  -0.5425330E+00   0.4880312E+00   0.2751059E-01
   0.7822146E-02
  -0.2242004E+01   0.4400184E+01  -0.2727273E+01   0.1054803E+01   0.2402080E+01  -0.7792858E+00   0.7108614E+00   0.3985507E-01
   0.1133208E-01
  -0.2242004E+01   0.4400184E+01  -0.1818182E+01   0.1516927E+01   0.2393371E+01  -0.1111756E+01   0.1032021E+01   0.5773880E-01
   0.1641700E-01
  -0.2242004E+01   0.4400184E+01  -0.9090910E+00   0.2109542E+01   0.2357946E+01  -0.1494283E+01   0.1489056E+01   0.8364727E-01
   0.2378361E-01
  -0.2242004E+01   0.4400184E+01   0.0000000E+00   0.2109542E+01   0.2357946E+01  -0.1494283E+01   0.1489056E+01   0.8364727E-01
   0.2378361E-01
  -0.4045086E+01   0.2938926E+01  -0.1000000E+02   0.3628566E-01  -0.1468953E+01   0.3689053E-02  -0.3609765E-01   0.2839596E-01
   0.1851799E-01
  -0.4045086E+01   0.2938926E+01  -0.9090909E+01   0.8763780E-01  -0.2900053E+00   0.8397826E-01  -0.2506067E-01  -0.1871230E-01
   0.2619888E-01
  -0.4045086E+01   0.2938926E+01  -0.8181818E+01   0.1297220E+00  -0.2348961E+00   0.1261596E+00  -0.3019174E-01  -0.2710886E-01
   0.3795481E-01
  -0.4045086E+01   0.2938926E+01  -0.7272727E+01   0.1870954E+00  -0.2245901E+00   0.1823966E+00  -0.4166741E-01  -0.3927309E-01
   0.5498581E-01
  -0.4045086E+01   0.2938926E+01  -0.6363636E+01   0.2684071E+00  -0.2272801E+00   0.2615045E+00  -0.6047975E-01  -0.5689564E-01
   0.7965895E-01
  -0.4045086E+01   0.2938926E+01  -0.5454545E+01   0.3877614E+00  -0.2186399E+00   0.3785301E+00  -0.8410625E-01  -0.8242577E-01
   0.1154034E+00
  -0.4045086E+01   0.2938926E+01  -0.4545455E+01   0.5602539E+00  -0.2131490E+00   0.5475752E+00  -0.1185154E+00  -0.1194117E+00
   0.1671870E+00
  -0.4045086E+01   0.2938926E+01  -0.3636364E+01   0.8119226E+00  -0.2141269E+00   0.7933801E+00  -0.1725290E+00  -0.1729939E+00
   0.2422069E+00
  -0.4045086E+01   0.2938926E+01  -0.2727273E+01   0.1183198E+01  -0.2088706E+00   0.1157482E+01  -0.2453422E+00  -0.2506195E+00
   0.3508895E+00
  -0.4045086E+01   0.2938926E+01  -0.1818182E+01   0.1729077E+01  -0.2058606E+00   0.1692568E+01  -0.3534400E+00  -0.3630770E+00
   0.5083401E+00
  -0.4045086E+01   0.2938926E+01  -0.9090910E+00   0.2563494E+01  -0.1955115E+00   0.2514655E+01  -0.4980055E+00  -0.5259963E+00
   0.7364416E+00
  -0.4045086E+01   0.2938926E+01   0.0000000E+00   0.2563494E+01  -0.1955115E+00   0.2514655E+01  -0.4980055E+00  -0.5259963E+00
   0.7364416E+00
  -0.3492004E+01   0.3492005E+01  -0.1000000E+02   0.1231155E-01  -0.1562688E+00   0.1216153E-01  -0.1916090E-02  -0.9903194E-02
   0.3668292E-02
  -0.3492004E+01   0.3492005E+01  -0.9090909E+01   0.2166031E-01   0.6112463E+00   0.1773835E-01   0.1243060E-01  -0.1434693E-01
   0.5314320E-02
  -0.3492004E+01   0.3492005E+01  -0.8181818E+01   0.3545107E-01   0.9029595E+00   0.2195445E-01   0.2783487E-01  -0.2078467E-01
   0.7698955E-02
  -0.3492004E+01   0.3492005E+01  -0.7272727E+01   0.5170202E-01   0.1041613E+01   0.2610064E-01   0.4463021E-01  -0.3011113E-01
   0.1115362E-01
  -0.3492004E+01   0.3492005E+01  -0.6363636E+01   0.7308689E-01   0.1167606E+01   0.2867597E-01   0.6722635E-01  -0.4362256E-01
   0.1615845E-01
  -0.3492004E+01   0.3492005E+01  -0.5454545E+01   0.1083940E+00   0.1221793E+01   0.3706655E-01   0.1018593E+00  -0.6319679E-01
   0.2340904E-01
  -0.3492004E+01   0.3492005E+01  -0.4545455E+01   0.1597171E+00   0.1273692E+01   0.4675755E-01   0.1527196E+00  -0.9155435E-01
   0.3391311E-01
  -0.3492004E+01   0.3492005E+01  -0.3636364E+01   0.2304014E+00   0.1291228E+01   0.6357704E-01   0.2214560E+00  -0.1326365E+00
   0.4913054E-01
  -0.3492004E+01   0.3492005E+01  -0.2727273E+01   0.3391844E+00   0.1275917E+01   0.9857515E-01   0.3245443E+00  -0.1921529E+00
   0.7117631E-01