VARIABLES="w (rad/s)"
"A   1   1" "B   1   1"
"A   1   2" "B   1   2"
"A   1   3" "B   1   3"
"A   1   4" "B   1   4"
"A   1   5" "B   1   5"
"A   1   6" "B   1   6"
"A   2   7" "B   2   7"
"A   2   8" "B   2   8"
"A   2   9" "B   2   9"
"A   2  10" "B   2  10"
"A   2  11" "B   2  11"
"A   2  12" "B   2  12"
Zone t="Motion of body    1 in DoF   1",I=    40,F=POINT
  0.5000000E-01  0.5807691E+06  0.3955807E-03 -0.1106262E-02 -0.1095259E-08 -0.3821151E+02  0.1767872E-02 -0.1502991E-01 -0.7094059E-09  0.1779025E+07  0.1173055E-02  0.3814697E-03  0.3365130E-10 -0.3361698E+04  0.2234646E-03 -0.1535416E-02 -0.2114575E-09 -0.1288498E+05  0.1160734E-02  0.1029968E-02 -0.4656613E-09 -0.2573985E+04  0.3173419E-03  0.3492832E-03  0.9629275E-10
  0.9999999E-01  0.5842772E+06  0.4862489E-01 -0.6866456E-03  0.9960786E-08 -0.3602066E+02  0.5645417E-01 -0.3814698E-03  0.1041917E-07  0.1787824E+07  0.1499430E+00 -0.4959107E-02 -0.1455192E-09 -0.3408675E+04  0.2976113E-01 -0.4196167E-03 -0.4540198E-08 -0.1326261E+05 -0.7197214E-01 -0.1258850E-02 -0.7450581E-08 -0.2619257E+04  0.3813908E-01  0.1027584E-02  0.1204899E-07
  0.1500000E+00  0.5901455E+06  0.8303385E+00  0.4170736E-02 -0.1852168E-06 -0.3123709E+02  0.3836134E+00 -0.6612143E-02 -0.4563481E-07  0.1812632E+07  0.2573489E+01 -0.8951824E-02 -0.1350418E-07 -0.6302237E+04  0.5018035E+00 -0.4736583E-03 -0.1117587E-06 -0.1287198E+05 -0.1938060E+01 -0.4221599E-02 -0.2980232E-06 -0.7916291E+04  0.6454260E+00  0.1424154E-02 -0.4055910E-06
  0.2000000E+00  0.5926863E+06  0.6128074E+01  0.9040833E-02  0.7473864E-06 -0.2439697E+02  0.1882110E+01 -0.6103516E-03 -0.1471490E-05  0.1820687E+07  0.1904515E+02  0.3585816E-02 -0.3539026E-07 -0.3629709E+04  0.3706690E+01 -0.2312660E-02 -0.1668930E-05 -0.1479244E+05 -0.1533793E+02 -0.3433228E-02 -0.1171231E-04 -0.2873245E+04  0.4748662E+01  0.5269051E-03 -0.2309680E-05
  0.2500000E+00  0.5964786E+06  0.2866692E+02  0.3387451E-02  0.8163974E-05 -0.1511975E+02  0.5961875E+01  0.1794433E-01  0.3159046E-05  0.1835711E+07  0.8944584E+02 -0.5004883E-02 -0.3650784E-06 -0.3811376E+04  0.1714791E+02  0.3128052E-03 -0.1907349E-05 -0.1590893E+05 -0.7411148E+02  0.5737304E-02  0.2312660E-04 -0.3106544E+04  0.2183988E+02 -0.8392333E-03 -0.1192093E-05
  0.3000000E+00  0.6016538E+06  0.1001479E+03  0.5238851E-02  0.6131828E-05 -0.9714762E+01  0.1471981E+02 -0.7425944E-02 -0.2872944E-04  0.1857966E+07  0.3140748E+03 -0.3763834E-02 -0.2086163E-05 -0.6714980E+04  0.5863724E+02 -0.2797444E-03  0.3719330E-04 -0.1694431E+05 -0.2612278E+03 -0.3153483E-02 -0.7390976E-04 -0.8217239E+04  0.7423177E+02 -0.5720457E-02  0.1174212E-04
  0.3500000E+00  0.6073938E+06  0.2855981E+03 -0.5275181E-02 -0.1129508E-04 -0.1375549E+02  0.3627554E+02 -0.3138951E-02 -0.3528595E-04  0.1880174E+07  0.9005468E+03 -0.2005441E-02 -0.3278255E-05 -0.8437051E+04  0.1652161E+03 -0.2179827E-04 -0.1239777E-03 -0.2109229E+05 -0.7299480E+03 -0.9547643E-02  0.3643036E-03 -0.1129081E+05  0.2089208E+03 -0.1662118E-02  0.2729893E-04
  0.4000001E+00  0.6143820E+06  0.7039505E+03 -0.4196166E-03  0.2032518E-04 -0.4592879E+02  0.7410334E+02  0.9765623E-02  0.1053810E-03  0.1905025E+07  0.2233417E+04  0.1373291E-01  0.1668930E-05 -0.4873487E+04  0.3674398E+03 -0.3557205E-02  0.1268387E-03 -0.2327456E+05 -0.1730488E+04 -0.9956358E-02 -0.5607605E-03 -0.4345724E+04  0.4519781E+03  0.3919601E-02  0.1621246E-03
  0.4499998E+00  0.6234573E+06  0.1540274E+04  0.7290313E-02 -0.2634525E-04 -0.1501954E+03  0.1245746E+03 -0.1159668E-01  0.1339912E-03  0.1942470E+07  0.4923875E+04  0.2577041E-02  0.1931190E-04 -0.1083184E+05  0.7847509E+03 -0.4238554E-03  0.2708435E-03 -0.2626780E+05 -0.3654610E+04 -0.1268175E-01  0.1350403E-02 -0.1417808E+05  0.9949927E+03  0.2810162E-02  0.6980896E-03
  0.5000001E+00  0.6333846E+06  0.3089574E+04 -0.6042480E-02 -0.2930164E-03 -0.3658364E+03  0.1717851E+03 -0.1477051E-01  0.3557205E-03  0.1978189E+07  0.9953996E+04  0.4882812E-03 -0.4768372E-06 -0.8522043E+04  0.1255046E+04  0.3326416E-02  0.6866455E-04 -0.2799946E+05 -0.6862770E+04 -0.6713866E-02  0.4058838E-02 -0.9099290E+04  0.1497928E+04 -0.3551483E-02 -0.1409531E-02
  0.5500002E+00  0.6461596E+06  0.5756215E+04 -0.1331676E-02  0.8630753E-04 -0.7181962E+03  0.1600556E+03  0.3884054E-02  0.1232147E-02  0.2029318E+07  0.1871982E+05  0.4106000E-02  0.5722046E-04 -0.1299640E+05  0.1846697E+04 -0.2913041E-03 -0.8316040E-03 -0.2973807E+05 -0.1177966E+05  0.5049271E-02 -0.7873535E-02 -0.1600510E+05  0.2269833E+04  0.3454034E-02  0.1258850E-02
  0.5999997E+00  0.6607759E+06  0.1017186E+05 -0.5798343E-02  0.2212524E-03 -0.1140172E+04 -0.2798589E+02 -0.5320233E-01  0.4463196E-03  0.2087022E+07  0.3341455E+05 -0.3662111E-02  0.1087189E-03 -0.1770544E+05  0.1956230E+04 -0.2772014E-02  0.1602173E-02 -0.2854632E+05 -0.1855465E+05 -0.8341475E-02  0.7171631E-02 -0.2090795E+05  0.2385146E+04  0.1433691E-02  0.3890991E-03
  0.6500000E+00  0.6770495E+06  0.1729772E+05 -0.1192533E-01 -0.1564026E-03 -0.1405607E+04 -0.5168051E+03 -0.9765625E-02  0.1541138E-02  0.2148314E+07  0.5739432E+05 -0.1878005E-03  0.9155273E-04 -0.2473984E+05  0.6957405E+03  0.5111694E-02 -0.3921509E-02 -0.2372527E+05 -0.2696841E+05 -0.2150315E-01 -0.7812500E-02 -0.2911588E+05  0.8471953E+03  0.2076076E-03  0.2334595E-02
  0.6999999E+00  0.6958568E+06  0.2867474E+05  0.5798340E-02  0.6885529E-03 -0.1125986E+04 -0.1330501E+04 -0.2467564E-01  0.7629395E-05  0.2225608E+07  0.9631011E+05 -0.4882813E-02 -0.1716614E-03 -0.3308414E+05 -0.3630688E+04  0.6267003E-03 -0.3967285E-03 -0.1416475E+05 -0.3625080E+05  0.9242467E-02  0.2624512E-02 -0.3865739E+05 -0.4208012E+04 -0.7803781E-02  0.2853394E-02
  0.7500000E+00  0.7147479E+06  0.4643218E+05  0.1228841E-01  0.2460480E-02  0.9030941E+02 -0.2184847E+04 -0.1505534E-01 -0.6698608E-02  0.2303544E+07  0.1579165E+06  0.4394531E-02 -0.1983643E-03 -0.4116517E+05 -0.1307945E+05 -0.5289714E-03 -0.8758545E-02  0.6574092E+03 -0.4457832E+05 -0.8138021E-03  0.2233887E-01 -0.4750763E+05 -0.1519924E+05 -0.6734212E-02  0.1612854E-01
  0.8000000E+00  0.7303440E+06  0.7258870E+05 -0.9002686E-02  0.4039764E-02  0.2219708E+04 -0.2374689E+04  0.5569458E-02  0.1235962E-02  0.2369322E+07  0.2499833E+06  0.2746582E-02 -0.3204346E-03 -0.4496468E+05 -0.2989274E+05  0.1831055E-02 -0.1419067E-01  0.2003000E+05 -0.4926507E+05  0.3495216E-02  0.1159668E-01 -0.5125073E+05 -0.3436150E+05 -0.7791519E-02  0.6484985E-03
  0.8500000E+00  0.7388314E+06  0.1069510E+06 -0.2728631E-02 -0.6278992E-02  0.4367054E+04 -0.1034733E+04  0.2225988E-01 -0.4592896E-02  0.2417035E+07  0.3736323E+06 -0.1091452E-01  0.4730225E-03 -0.3855791E+05 -0.5442347E+05  0.6498449E-02 -0.1571655E-02  0.4134130E+05 -0.4704382E+05 -0.2283433E-01  0.9033203E-02 -0.4324243E+05 -0.6167780E+05 -0.1143512E-01  0.4361153E-02
  0.8999999E+00  0.7371554E+06  0.1449932E+06  0.3255209E-02 -0.7171631E-03  0.4837363E+04  0.1960024E+04 -0.8422852E-01 -0.1940918E-01  0.2431108E+07  0.5142530E+06 -0.4747179E-02 -0.1586914E-02 -0.1599078E+05 -0.8204636E+05  0.6713868E-02 -0.3280640E-02  0.6014231E+05 -0.3578313E+05 -0.7459854E-02 -0.1660156E-01 -0.1747966E+05 -0.9194043E+05  0.8697511E-02  0.1023102E-01
  0.9499999E+00  0.7297018E+06  0.1798798E+06 -0.7838200E-02 -0.7324219E-02  0.2442698E+04  0.5155457E+04 -0.3160979E-01 -0.1861572E-02  0.2423847E+07  0.6479437E+06  0.2569902E-02  0.2807617E-02  0.2390714E+05 -0.1034199E+06  0.5910774E-02 -0.3295898E-02  0.7172012E+05 -0.1589751E+05  0.1387747E-01  0.0000000E+00  0.2700535E+05 -0.1144062E+06 -0.1082571E-01 -0.4913330E-02
  0.9999999E+00  0.7269542E+06  0.2106362E+06  0.5004883E-02  0.2044678E-02 -0.2095096E+04  0.6108895E+04  0.1245117E+00  0.3051758E-04  0.2430755E+07  0.7704705E+06  0.3662110E-03  0.1770020E-02  0.7693012E+05 -0.1072729E+06  0.1416016E-01 -0.9765625E-03  0.7368364E+05  0.9846464E+04  0.9765626E-03 -0.2075195E-02  0.8478458E+05 -0.1169972E+06  0.1145554E-01 -0.6408691E-02
  0.1050000E+01  0.7386386E+06  0.2500166E+06 -0.2453032E-01 -0.6042480E-02 -0.6185288E+04  0.3160500E+04  0.1241629E+00 -0.3848267E-01  0.2494424E+07  0.9298744E+06 -0.1046317E-02  0.2563477E-02  0.1353723E+06 -0.8085405E+05 -0.9794689E-02  0.4028320E-02  0.6580282E+05  0.3883578E+05 -0.2720424E-01 -0.1022339E-02  0.1473079E+06 -0.8692144E+05  0.9104411E-02  0.5340576E-02
  0.1100000E+01  0.7549392E+06  0.3243250E+06 -0.3745339E-01 -0.1168823E-01 -0.6619810E+04 -0.3009880E+04 -0.1043146E+00  0.3118896E-01  0.2579204E+07  0.1227493E+07 -0.1453747E-01 -0.1770020E-02  0.1822889E+06 -0.7871800E+04  0.1137473E-01  0.1586914E-02  0.4587102E+05  0.6771787E+05  0.2885298E-02  0.1403809E-01  0.1958690E+06 -0.7398668E+04  0.2050226E-01 -0.3952026E-02
  0.1150000E+01  0.7345901E+06  0.4449734E+06 -0.6846553E-02 -0.1437378E-01 -0.1822720E+04 -0.7858720E+04  0.1963740E-01  0.1281738E-02  0.2524447E+07  0.1713878E+07  0.8067257E-02  0.2319336E-02  0.1811371E+06  0.1137285E+06  0.8491849E-03 -0.3051758E-03  0.1255097E+05  0.8612325E+05 -0.8491849E-02  0.8789062E-02  0.1919940E+06  0.1219629E+06  0.4182236E-01 -0.1737595E-02
  0.1200000E+01  0.6465659E+06  0.5537485E+06 -0.2807617E-01  0.9216309E-02  0.4102969E+04 -0.5870820E+04 -0.1658122E-01  0.8703613E-01  0.2202826E+07  0.2171817E+07  0.6612142E-02 -0.7446289E-02  0.1032338E+06  0.2285769E+06 -0.7120768E-03  0.1188087E-01 -0.2382748E+05  0.7990030E+05 -0.1093547E-01 -0.8789062E-02  0.1078925E+06  0.2419999E+06 -0.7883708E-02  0.1931763E-01
  0.1250000E+01  0.5402593E+06  0.5786387E+06 -0.9130859E-02 -0.3546143E-01  0.5301359E+04  0.4308889E+03  0.1206055E-01  0.3350830E-01  0.1797103E+07  0.2312777E+07 -0.4199218E-02 -0.2441406E-02 -0.1230741E+05  0.2647875E+06  0.5957031E-02 -0.1831055E-02 -0.4590811E+05  0.5218654E+05  0.1757812E-02  0.8300781E-02 -0.1406193E+05  0.2773212E+06 -0.3326416E-03 -0.3182983E-01
  0.1300000E+01  0.4781620E+06  0.5455030E+06  0.1516489E-01 -0.6958008E-02  0.2412852E+04  0.4540690E+04 -0.1760630E-01 -0.1892090E-01  0.1554714E+07  0.2222071E+07 -0.4788912E-02 -0.1708984E-02 -0.1102861E+06  0.2230505E+06 -0.1333384E-01 -0.1647949E-02 -0.5172907E+05  0.1994144E+05 -0.7887620E-02  0.9521484E-02 -0.1156799E+06  0.2313786E+06 -0.1791147E-01 -0.2511597E-01
  0.1350000E+01  0.4632910E+06  0.5181596E+06  0.1008211E-01  0.3997803E-01 -0.8987058E+03  0.4475131E+04 -0.1039858E-02  0.2781372E+00  0.1498652E+07  0.2151335E+07  0.0000000E+00  0.2563477E-02 -0.1757008E+06  0.1290405E+06 -0.8539272E-02 -0.9033203E-02 -0.4773387E+05 -0.1001452E+05 -0.6510417E-02 -0.1007080E-01 -0.1827008E+06  0.1324980E+06  0.6646052E-02 -0.3885651E-01
  0.1400000E+01  0.4646468E+06  0.5327863E+06  0.1046317E-02  0.1214600E-01 -0.2584303E+04  0.1738450E+04  0.2724784E-01  0.1257324E-01  0.1509109E+07  0.2255298E+07  0.3574916E-02 -0.4882812E-03 -0.1994414E+06 -0.7547112E+04  0.1089914E-02 -0.1495361E-01 -0.3593533E+05 -0.3637136E+05  0.3452846E-01  0.4443359E-01 -0.2062479E+06 -0.9442372E+04 -0.2524240E-01  0.1315308E-01
  0.1450000E+01  0.4497789E+06  0.5881362E+06  0.1953125E-01 -0.1831055E-03 -0.2270987E+04 -0.1474990E+04 -0.8039802E-02  0.1228943E+00  0.1450296E+07  0.2539212E+07 -0.1178610E-02 -0.4394531E-02 -0.1639433E+06 -0.1597134E+06  0.3451643E-02 -0.3143311E-02 -0.1687862E+05 -0.5353630E+05 -0.3367457E-03 -0.5297852E-01 -0.1686748E+06 -0.1664182E+06 -0.5209034E-02  0.2630615E-01
  0.1500000E+01  0.3991154E+06  0.6506277E+06  0.2665201E-02  0.7263184E-02 -0.5301431E+03 -0.3237761E+04 -0.3006998E-01  0.1745300E+00  0.1230977E+07  0.2864916E+07  0.1953125E-02  0.7080078E-02 -0.7035289E+05 -0.2645764E+06 -0.7324218E-03  0.2746582E-03  0.4580930E+04 -0.5384130E+05  0.1395670E-01  0.2685547E-01 -0.7158150E+05 -0.2737860E+06 -0.7475788E-01  0.6988525E-02
  0.1550000E+01  0.3168510E+06  0.6634428E+06  0.2165764E-03  0.2258301E-01  0.1366038E+04 -0.2315499E+04  0.2583165E-01 -0.1580811E+00  0.8608038E+06  0.2977920E+07  0.5670363E-02 -0.3906250E-02  0.4112812E+05 -0.2619247E+06  0.1275832E-01  0.2807617E-02  0.2007398E+05 -0.3616179E+05 -0.1567225E-01  0.5126953E-02  0.4389563E+05 -0.2706227E+06  0.6733556E-02  0.2199554E-01
  0.1600000E+01  0.2502871E+06  0.5806489E+06  0.9164810E-02 -0.5218506E-01  0.1747854E+04  0.6081141E+03 -0.5054474E-01  0.3512573E-01  0.5479188E+06  0.2657844E+07 -0.3433228E-03 -0.4394531E-02  0.1119666E+06 -0.1615739E+06  0.4405975E-02 -0.3161621E-01  0.2377895E+05 -0.1122854E+05 -0.3356934E-02 -0.1086426E-01  0.1174181E+06 -0.1659395E+06  0.1035690E-01  0.1733398E-01
  0.1650000E+01  0.2491965E+06  0.4666817E+06  0.8322977E-03 -0.3869629E-01  0.4483479E+03  0.2408189E+04  0.1764471E-01  0.1533203E+00  0.5281666E+06  0.2179254E+07 -0.1442649E-02  0.4638672E-02  0.1261874E+06 -0.4109091E+05 -0.1183712E-02 -0.3948975E-01  0.1909527E+05  0.7578467E+04  0.1035748E-02 -0.2511215E-01  0.1320085E+06 -0.3995555E+05  0.5022166E-01 -0.3356934E-02
  0.1700000E+01  0.2907723E+06  0.4240594E+06  0.1346364E-02 -0.1574707E-01 -0.9061863E+03  0.1600525E+04 -0.7830453E-01  0.1039886E+00  0.7102090E+06  0.2018797E+07  0.3123564E-02  0.3662109E-02  0.1100380E+06  0.5708665E+05  0.7970475E-02 -0.9770393E-03  0.1225258E+05  0.1833731E+05 -0.4308365E-03  0.1794434E-01  0.1151872E+06  0.6337460E+05  0.3435921E-01  0.4821777E-02
  0.1750000E+01  0.3155115E+06  0.4809203E+06  0.7184711E-02 -0.6591797E-02 -0.1115554E+04 -0.6395691E+03  0.1213728E-01  0.1009827E+00  0.8178894E+06  0.2331518E+07 -0.1238142E-02  0.9765625E-03  0.7791275E+05  0.1417923E+06  0.2441407E-03  0.2685547E-02  0.4888698E+04  0.2441156E+05  0.7672991E-03  0.2441406E-03  0.8066750E+05  0.1534180E+06 -0.5508859E-01  0.3559303E-01
  0.1800000E+01  0.2676313E+06  0.5603305E+06  0.9157923E-02  0.3723145E-01  0.2074090E+02 -0.1907309E+04  0.1634386E-01  0.1035919E+00  0.5724468E+06  0.2764255E+07 -0.1659394E-02 -0.2685547E-02  0.1514927E+05  0.2045217E+06 -0.9049311E-02  0.1232910E-01 -0.4166903E+04  0.2392468E+05  0.1360576E-01  0.4638672E-02  0.1247964E+05  0.2193133E+06 -0.1781040E-01 -0.1437378E-01
  0.1850000E+01  0.1969018E+06  0.4737448E+06 -0.1321123E-01  0.2471924E-01  0.8006610E+03 -0.2358192E+03 -0.3655512E-01  0.7110596E-02  0.2041156E+06  0.2380118E+07  0.3220842E-02 -0.4638672E-02 -0.5744588E+05  0.1552072E+06 -0.2177471E-02 -0.1098633E-02 -0.9808147E+04  0.1066131E+05  0.2177471E-02  0.1818848E-01 -0.6520918E+05  0.1623555E+06  0.3149909E-01  0.2304077E-01
  0.1900000E+01  0.2133697E+06  0.3475064E+06  0.3381027E-02 -0.1574707E-01  0.2436452E+03  0.9224429E+03  0.2184416E-02  0.1797485E-01  0.2674486E+06  0.1778654E+07  0.1124332E-03  0.4394531E-02 -0.7498533E+05  0.5514275E+05 -0.5782279E-03  0.5134583E-02 -0.8188591E+04 -0.1061924E+04  0.7067230E-03  0.1338196E-01 -0.8238289E+05  0.5249495E+05 -0.1593339E-01 -0.8464813E-02
  0.1950000E+01  0.2528907E+06  0.3183905E+06 -0.5663359E-02  0.9948730E-02 -0.2476106E+03  0.6084408E+03 -0.8638823E-02  0.2777863E-01  0.4530345E+06  0.1655896E+07 -0.9155275E-03 -0.2441406E-03 -0.7011173E+05 -0.1451309E+05  0.2034506E-02  0.4699707E-02 -0.5513286E+04 -0.6257168E+04 -0.1189403E-02  0.6256104E-02 -0.7585119E+05 -0.2357274E+05 -0.6573018E-02 -0.1826477E-01
  0.2000000E+01  0.2731078E+06  0.3559815E+06  0.4055024E-02 -0.2099609E-01 -0.3412979E+03 -0.1928153E+03 -0.3033447E-01  0.7909775E-01  0.5435287E+06  0.1881679E+07 -0.1159668E-02  0.3906250E-02 -0.5930129E+05 -0.8592840E+05 -0.3396988E-02  0.8666992E-02 -0.2916678E+04 -0.9717802E+04 -0.2227783E-02  0.1220703E-03 -0.6207043E+05 -0.1007479E+06  0.2322293E-01  0.1919556E-01
Zone t="Motion of body    1 in DoF   2",I=    40,F=POINT
  0.5000000E-01  0.6561279E-02 -0.3410605E-11  0.5807512E+06  0.4008895E-03  0.1792908E-02 -0.9720225E-11 -0.1778969E+07 -0.1199783E-02 -0.1457214E-01 -0.1489298E-10  0.1249313E-01 -0.1702290E-06 -0.2589076E-04  0.1790568E-11  0.2687622E+04  0.2393353E-03  0.1430511E-04  0.1364242E-11 -0.3464893E+04 -0.3114019E-03 -0.9059905E-04  0.4547474E-12  0.2460755E+03 -0.7740015E-06
  0.9999999E-01 -0.2746582E-02  0.3310561E-09  0.5842609E+06  0.4917034E-01 -0.1487732E-02 -0.1491571E-09 -0.1787777E+07 -0.1518572E+00  0.1983643E-01  0.2430170E-08  0.1873017E-01 -0.6162063E-06  0.1233071E-04 -0.4229150E-10  0.2771948E+04  0.3013813E-01  0.9536744E-04 -0.7275958E-10 -0.3570923E+04 -0.3881843E-01  0.1192093E-03 -0.2910383E-10  0.2485105E+03  0.1339530E-04
  0.1500000E+00  0.5086264E-02 -0.3317837E-08  0.5901091E+06  0.8423241E+00  0.9663901E-03  0.6577466E-08 -0.1812513E+07 -0.2611076E+01  0.4170736E-02 -0.4656613E-08  0.2512614E-01  0.3904948E-05  0.1395245E-03  0.6548362E-09  0.2797572E+04  0.5121130E+00 -0.1271566E-03 -0.2328306E-07 -0.3575911E+04 -0.6585382E+00 -0.1907349E-04  0.8381903E-08  0.1488553E+03  0.1143798E-03
  0.2000000E+00  0.2288819E-02 -0.4656613E-09  0.5926784E+06  0.6221918E+01  0.1697540E-02 -0.1033768E-06 -0.1820666E+07 -0.1933666E+02  0.1083374E-01  0.7264316E-07  0.2044678E-01  0.6279675E-05  0.3322959E-04 -0.3771856E-07  0.3162115E+04  0.3794319E+01  0.2789498E-03  0.1862645E-07 -0.4057452E+04 -0.4857430E+01  0.1192093E-03  0.3352761E-07  0.2504026E+03  0.9321709E-03
  0.2500000E+00 -0.1220703E-03  0.1043081E-06  0.5964776E+06  0.2919619E+02  0.7476806E-03 -0.5178154E-06 -0.1835709E+07 -0.9108665E+02 -0.3326416E-01 -0.5736947E-06  0.1901245E-01 -0.1667719E-04 -0.4446506E-04 -0.4656613E-08  0.3475716E+04  0.1779779E+02  0.4196167E-04  0.1043081E-05 -0.4438037E+04 -0.2268831E+02  0.6103515E-04  0.0000000E+00  0.2523289E+03  0.2033354E-02
  0.3000000E+00  0.5594889E-03 -0.1266599E-06  0.6016434E+06  0.1025534E+03  0.2746582E-02  0.1169741E-05 -0.1857924E+07 -0.3216428E+03 -0.1129150E-01 -0.8940697E-07  0.2309163E-01  0.1611635E-03 -0.5086263E-04 -0.5569309E-06  0.3843249E+04  0.6238775E+02 -0.7947286E-05 -0.2995133E-05 -0.4862895E+04 -0.7910367E+02  0.1398722E-03 -0.2384186E-06  0.1714942E+03 -0.1138791E-02
  0.3500000E+00 -0.3662110E-02  0.3755093E-05  0.6074193E+06  0.2947760E+03  0.5078997E-02  0.6645918E-05 -0.1880254E+07 -0.9296964E+03  0.3574916E-02  0.4053116E-05 -0.4708427E-02  0.4232675E-03 -0.9596349E-04  0.2682209E-06  0.4791544E+04  0.1781616E+03  0.1307896E-03  0.4529953E-05 -0.6088466E+04 -0.2242898E+03  0.3705706E-03  0.0000000E+00 -0.1681989E+02  0.4854241E-01
  0.4000001E+00  0.1068115E-02 -0.3874302E-05  0.6144732E+06  0.7309766E+03 -0.4444121E-02  0.6258488E-05 -0.1905316E+07 -0.2318941E+04 -0.3196716E-01  0.7629395E-05  0.2815246E-01  0.2520680E-03 -0.7212161E-04 -0.1132488E-05  0.5453775E+04  0.4343474E+03 -0.1192093E-03 -0.2014637E-04 -0.6848892E+04 -0.5424351E+03  0.8583067E-04  0.4768372E-05  0.2634521E+03 -0.3417709E+00
  0.4499998E+00  0.4272462E-02  0.2634525E-04  0.6235562E+06  0.1619551E+04 -0.2356636E-02  0.1716614E-04 -0.1942776E+07 -0.5178821E+04  0.1634386E-01 -0.3528595E-04 -0.4713272E-02 -0.1192153E-02  0.9848016E-04  0.9238720E-06  0.6381911E+04  0.9443317E+03  0.1080831E-03  0.6318092E-04 -0.7960004E+04 -0.1170273E+04 -0.2797446E-03  0.9536743E-06  0.4887565E+02  0.1601750E+01
  0.5000001E+00 -0.4699707E-02 -0.3933907E-04  0.6335263E+06  0.3277457E+04  0.5233765E-02 -0.2789497E-04 -0.1978644E+07 -0.1055835E+05 -0.5004883E-02  0.9250641E-04  0.3295898E-02 -0.2253771E-02  0.1516342E-03  0.9179115E-05  0.7037120E+04  0.1842475E+04 -0.3643036E-03 -0.5674362E-04 -0.8665268E+04 -0.2261987E+04  0.2593994E-03 -0.5722046E-05  0.2834886E+03 -0.3445972E+01
  0.5500002E+00 -0.3273703E-02  0.8487701E-04  0.6461725E+06  0.6166032E+04 -0.1581365E-02  0.3480911E-04 -0.2029363E+07 -0.2005364E+05  0.2441406E-02  0.1296997E-03  0.3517843E-01 -0.3050089E-02 -0.8550555E-04 -0.3564358E-04  0.7660429E+04  0.3301751E+04  0.1040372E-03  0.1029968E-03 -0.9364567E+04 -0.4012598E+04 -0.1803311E-03 -0.9536743E-04  0.5391103E+02  0.2282256E+01
  0.5999997E+00  0.2237957E-02 -0.9250641E-04  0.6602909E+06  0.1090480E+05  0.1475017E-02 -0.6437302E-04 -0.2085427E+07 -0.3582439E+05 -0.1586915E-01  0.3108978E-03  0.4135133E-01  0.4069328E-02 -0.2264978E-03 -0.9191036E-04  0.7408897E+04  0.5422006E+04  0.2034506E-03 -0.1544952E-03 -0.8989910E+04 -0.6523919E+04  0.0000000E+00 -0.1296997E-03  0.1734814E+03  0.7834046E+01
  0.6500000E+00  0.7793720E-02  0.1335144E-04  0.6753991E+06  0.1827826E+05  0.4601112E-02 -0.1039505E-03 -0.2142833E+07 -0.6065394E+05  0.2225436E-01  0.1296997E-03  0.2262996E-01  0.4682541E-02  0.1360361E-03  0.1605749E-03  0.5921896E+04  0.8209414E+04  0.4695012E-04  0.1335144E-03 -0.7148034E+04 -0.9766983E+04  0.4695012E-03  0.1068115E-03  0.1861840E+03  0.6248070E+01
  0.6999999E+00 -0.6713868E-02  0.2632141E-03  0.6922737E+06  0.2926069E+05  0.2485003E-02  0.9727478E-04 -0.2213565E+07 -0.9828692E+05  0.2877372E-02  0.2975464E-03  0.1107352E-01  0.2469063E-02 -0.3448555E-04  0.1151562E-03  0.2624394E+04  0.1140965E+05 -0.3678458E-04 -0.3471375E-03 -0.3229144E+04 -0.1343320E+05  0.6103516E-03  0.3662109E-03  0.2052691E+03  0.2217364E+02
  0.7500000E+00  0.1546224E-02 -0.2174377E-03  0.7092152E+06  0.4498356E+05 -0.2319336E-02 -0.2479553E-03 -0.2284706E+07 -0.1529954E+06 -0.2775065E-01 -0.5035400E-03  0.3483073E-01  0.9025574E-02  0.1858075E-03 -0.3790855E-04 -0.2838040E+04  0.1431654E+05 -0.7883707E-04 -0.6294250E-03  0.3107262E+04 -0.1666326E+05 -0.7120769E-04 -0.2136230E-03  0.2669413E+03  0.1313553E+02
  0.8000000E+00 -0.1525879E-03  0.4653931E-03  0.7251720E+06  0.6669773E+05 -0.3986359E-02 -0.1831055E-03 -0.2351484E+07 -0.2296959E+06  0.3509521E-02  0.3219604E-02  0.2975464E-02  0.5485535E-02 -0.3099442E-04  0.1189709E-03 -0.1036666E+05  0.1580803E+05  0.2086163E-03 -0.4158020E-03  0.1165640E+05 -0.1822374E+05  0.1239777E-02  0.8239746E-03  0.3332460E+03  0.2695047E+02
  0.8500000E+00  0.6462546E-03  0.1556396E-02  0.7397258E+06  0.9565639E+05 -0.4308364E-02  0.2632141E-03 -0.2420127E+07 -0.3341747E+06 -0.1005285E-02 -0.3463745E-02  0.7934570E-02  0.2717972E-01  0.3253713E-04 -0.1803637E-03 -0.1911501E+05  0.1435575E+05  0.8347455E-03  0.1869202E-03  0.2136618E+05 -0.1642717E+05  0.6462546E-03 -0.3662109E-03  0.4331307E+03  0.7317455E+02
  0.8999999E+00  0.1220703E-02 -0.5493164E-03  0.7506098E+06  0.1331189E+06 -0.9223091E-02  0.1735687E-02 -0.2478786E+07 -0.4721180E+06  0.1763238E-02 -0.1281738E-02  0.8104114E-02  0.1143646E-01 -0.7894306E-04 -0.5280972E-04 -0.2714105E+05  0.8397994E+04  0.4662408E-04  0.8010864E-04  0.3008762E+05 -0.9705701E+04  0.1695421E-03  0.3967285E-03  0.5302949E+03  0.1658191E+03
  0.9499999E+00  0.9444388E-02  0.3662109E-03  0.7552384E+06  0.1796814E+06 -0.3694234E-03 -0.1419067E-02 -0.2515797E+07 -0.6471873E+06 -0.1773232E-01 -0.5187988E-03  0.3231651E-01  0.2143860E-02  0.4949068E-03  0.3442764E-03 -0.3156021E+05 -0.2695713E+04 -0.1124332E-03 -0.4005432E-04  0.3463246E+05  0.2485028E+04  0.5139803E-03  0.7019043E-03  0.6664935E+03  0.3409122E+03
  0.9999999E+00  0.4394532E-02  0.5950928E-02  0.7503592E+06  0.2344626E+06 -0.8239747E-02  0.2449036E-02 -0.2516356E+07 -0.8575651E+06  0.2221680E-01 -0.1376343E-01  0.4818726E-01  0.1093597E+00  0.6139279E-03  0.1001358E-03 -0.2944438E+05 -0.1757071E+05  0.1350403E-02 -0.5712509E-03  0.3201488E+05  0.1845589E+05 -0.2624512E-02 -0.1262665E-02  0.7484888E+03  0.6572087E+03
  0.1050000E+01 -0.4650297E-03 -0.3692627E-02  0.7357519E+06  0.2947249E+06  0.1613072E-02  0.1602173E-03 -0.2483709E+07 -0.1096084E+07  0.4917689E-01  0.2465820E-01  0.1456124E-01  0.1049652E+00 -0.7547651E-03 -0.2470016E-03 -0.1928225E+05 -0.3238038E+05 -0.1017253E-03  0.8087158E-03  0.2097853E+05  0.3405528E+05 -0.2557663E-02 -0.1525879E-03  0.7450627E+03  0.1157180E+04
  0.1100000E+01  0.6436435E-02 -0.5432129E-02  0.7110974E+06  0.3571911E+06 -0.3398549E-02  0.1770020E-02 -0.2413348E+07 -0.1351813E+07  0.2463601E-01  0.9216309E-02  0.1055076E+00  0.4562378E-01 -0.1377626E-02 -0.8010864E-04 -0.2309327E+04 -0.4135266E+05 -0.2739646E-03 -0.4501343E-03  0.3023554E+04  0.4315680E+05 -0.1331676E-02  0.3051758E-04  0.4990853E+03  0.1838336E+04
  0.1150000E+01  0.1167629E-02 -0.2014160E-02  0.6767534E+06  0.4184281E+06  0.8757219E-03  0.5950928E-03 -0.2301785E+07 -0.1611638E+07 -0.4776665E-02  0.4272461E-02  0.1433796E+00 -0.1586914E-02  0.1488561E-02  0.2036095E-03  0.1678318E+05 -0.3927622E+05  0.5970831E-04  0.5111694E-03 -0.1669221E+05  0.4061714E+05  0.3098198E-02  0.1586914E-02 -0.1589732E+03  0.2591196E+04
  0.1200000E+01  0.1322428E-02  0.4882812E-03  0.6353288E+06  0.4752289E+06 -0.3509521E-02  0.2868652E-02 -0.2158786E+07 -0.1863928E+07 -0.1210531E-01 -0.2331543E-01  0.6891887E-01  0.3313599E+00 -0.2630552E-03 -0.9036064E-03  0.3148773E+05 -0.2464505E+05 -0.7804235E-03 -0.5035400E-03 -0.3156150E+05  0.2546961E+05 -0.6103516E-03 -0.3387451E-02 -0.1232762E+04  0.3090896E+04
  0.1250000E+01 -0.1093750E-01 -0.1220703E-02  0.5880119E+06  0.5243852E+06 -0.2062988E-02  0.9460449E-03 -0.1987919E+07 -0.2095971E+07 -0.1445312E-01  0.8300781E-02 -0.1245850E+00 -0.5157471E-01  0.4768371E-03 -0.8430481E-03  0.3626538E+05 -0.1220782E+04 -0.1220703E-04 -0.5340576E-04 -0.3608012E+05  0.1804729E+04  0.1464844E-03 -0.2563477E-02 -0.2722954E+04  0.2881659E+04
  0.1300000E+01  0.4882813E-02  0.5126953E-02  0.5369016E+06  0.5624250E+06 -0.2429669E-02 -0.5340576E-03 -0.1793900E+07 -0.2291037E+07  0.2817007E-03 -0.1647949E-02 -0.2826867E+00  0.6994629E-01  0.4242934E-03  0.1317978E-02  0.2945130E+05  0.2271768E+05 -0.7512020E-03 -0.1411438E-03 -0.2903154E+05 -0.2179116E+05  0.1737155E-02 -0.2441406E-03 -0.4226507E+04  0.1418063E+04
  0.1350000E+01  0.1356337E-02  0.1586914E-02  0.4866495E+06  0.5873807E+06  0.1039858E-02  0.1556396E-02 -0.1595609E+07 -0.2438615E+07  0.6329572E-02  0.1904297E-01  0.3060348E+00 -0.1715088E+00 -0.9451973E-03 -0.1251221E-02  0.1421022E+05  0.3835405E+05  0.2769188E-03  0.5636215E-03 -0.1398195E+05 -0.3680910E+05 -0.7459853E-03  0.1544952E-03 -0.5124249E+04 -0.1485774E+04
  0.1400000E+01 -0.3705706E-02  0.1098633E-02  0.4394899E+06  0.5992084E+06 -0.6103516E-03 -0.7400513E-03 -0.1402738E+07 -0.2536469E+07  0.6016323E-02  0.2789307E-01 -0.3308978E+00 -0.4145508E+00  0.1311983E-02  0.8749962E-04 -0.3330304E+04  0.4037979E+05  0.2670288E-03  0.1106262E-03  0.2945238E+04 -0.3840882E+05 -0.2724784E-02  0.9155273E-04 -0.4687291E+04 -0.5602828E+04
  0.1450000E+01  0.1136517E-02  0.2441406E-02  0.3977535E+06  0.6005326E+06 -0.7261079E-03  0.1235962E-02 -0.1225778E+07 -0.2592891E+07  0.2778152E-02 -0.1281738E-01 -0.5680478E-01 -0.1029663E+00  0.6445522E-03  0.6551743E-03 -0.1691826E+05  0.2905716E+05  0.2367743E-04 -0.1525879E-04  0.1571475E+05 -0.2734553E+05  0.1157563E-02  0.6103516E-04 -0.2467577E+04 -0.9772887E+04
  0.1500000E+01  0.6917317E-03 -0.1342773E-02  0.3612542E+06  0.5931218E+06 -0.1841227E-02  0.6637573E-03 -0.1064376E+07 -0.2611973E+07  0.5818684E-02  0.5642700E-01  0.7394611E+00  0.3547363E+00 -0.5426406E-03 -0.4093170E-02 -0.2259005E+05  0.9592925E+04  0.3051758E-03  0.4425049E-03  0.2077944E+05 -0.9016151E+04 -0.2657572E-03  0.3356934E-03  0.1471949E+04 -0.1215595E+05
  0.1550000E+01  0.2008253E-02 -0.3295898E-02  0.3305645E+06  0.5793155E+06 -0.6201959E-03  0.2288818E-04 -0.9222061E+06 -0.2600675E+07 -0.1496346E-02 -0.7934570E-02  0.4264093E+00 -0.2151672E+01  0.1808905E-03 -0.8659363E-03 -0.1979377E+05 -0.1037608E+05  0.3199423E-04  0.2021790E-03  0.1802359E+05  0.9331086E+04 -0.2657983E-03  0.2014160E-02  0.6204831E+04 -0.1089216E+05
  0.1600000E+01  0.3433228E-03 -0.5615234E-02  0.3050775E+06  0.5594528E+06 -0.9059906E-03 -0.1083374E-02 -0.7983326E+06 -0.2560810E+07 -0.2288819E-03  0.6164551E-02  0.1571465E+00  0.4117432E+00 -0.1238585E-02 -0.4749298E-03 -0.1094280E+05 -0.2392646E+05  0.0000000E+00  0.7247925E-04  0.9854553E+04  0.2146753E+05 -0.8869172E-03  0.1449585E-02  0.1010542E+05 -0.4620361E+04
  0.1650000E+01  0.7028292E-02  0.1220703E-02  0.2850301E+06  0.5355416E+06  0.4531399E-03  0.1720428E-02 -0.6952106E+06 -0.2500014E+07 -0.4032020E-02  0.4119873E-01  0.9092945E+00 -0.1061829E+01  0.1271566E-04 -0.1239777E-04 -0.9659683E+02 -0.2698927E+05 -0.9247753E-05  0.2698898E-03  0.1016142E+03  0.2396000E+05  0.7860590E-03  0.5130768E-03  0.1114405E+05  0.5810417E+04
  0.1700000E+01 -0.2513213E-03 -0.8544922E-03  0.2698596E+06  0.5098622E+06  0.7449880E-03  0.4310608E-03 -0.6110073E+06 -0.2425941E+07  0.1687443E-02  0.1765442E-01  0.1122912E+00  0.5152588E+00  0.1252960E-02  0.1022339E-02  0.8528431E+04 -0.1967750E+05 -0.2692728E-04 -0.1983643E-03 -0.7485152E+04  0.1736797E+05  0.7360123E-03 -0.1457214E-02  0.7900379E+04  0.1733251E+05
  0.1750000E+01 -0.2563477E-02 -0.9765625E-02  0.2584646E+06  0.4832370E+06  0.6975447E-04 -0.3547668E-03 -0.5422584E+06 -0.2342714E+07 -0.1569476E-02 -0.3706360E-01  0.3378383E+00  0.5100098E+00  0.6408693E-03 -0.1705170E-02  0.1210769E+05 -0.6047273E+04  0.2506801E-04  0.2670288E-03 -0.1055354E+05  0.5397070E+04  0.1787458E-03  0.5493164E-03  0.5276802E+03  0.2471704E+05
  0.1800000E+01 -0.5340577E-03 -0.2929688E-02  0.2502868E+06  0.4570788E+06 -0.3729927E-03 -0.2231598E-03 -0.4871485E+06 -0.2256473E+07 -0.6781685E-04 -0.1770020E-02  0.8029091E-01  0.3202515E+00  0.2649096E-03  0.3676414E-03  0.1010962E+05  0.7661500E+04 -0.5881406E-04  0.0000000E+00 -0.8822062E+04 -0.6524186E+04  0.1107322E-03 -0.1281738E-02 -0.8714887E+04  0.2284031E+05
  0.1850000E+01  0.1010379E-02 -0.1098633E-02  0.2444267E+06  0.4304833E+06 -0.2391919E-03  0.2288818E-04 -0.4420194E+06 -0.2163559E+07  0.3563134E-02 -0.5441284E-01  0.8284287E-01  0.5330811E+00 -0.1742389E-03  0.5626678E-04  0.4330247E+04  0.1561843E+05 -0.1030999E-05 -0.6866455E-04 -0.3832788E+04 -0.1342689E+05  0.2309439E-03  0.1571655E-02 -0.1596418E+05  0.9361750E+04
  0.1900000E+01  0.2565886E-02 -0.3295898E-02  0.2411472E+06  0.4039337E+06  0.2842953E-02  0.2059937E-03 -0.4089509E+06 -0.2066117E+07 -0.6424754E-02 -0.7797241E-02 -0.2551832E-02  0.6259766E+00  0.1814609E-03  0.5798340E-03 -0.1980438E+04  0.1491340E+05 -0.1405415E-04  0.8583069E-05  0.1594513E+04 -0.1288808E+05  0.8030943E-05  0.6141663E-03 -0.1680950E+05 -0.1260142E+05