VARIABLES="w (rad/s)"
"A   1   1" "B   1   1"
"A   1   2" "B   1   2"
"A   1   3" "B   1   3"
"A   1   4" "B   1   4"
"A   1   5" "B   1   5"
"A   1   6" "B   1   6"
"A   2   1" "B   2   1"
"A   2   2" "B   2   2"
"A   2   3" "B   2   3"
"A   2   4" "B   2   4"
"A   2   5" "B   2   5"
"A   2   6" "B   2   6"
Zone t="Motion of body    1 in DoF   1",I=    40,F=POINT
  0.5000000E-01  0.5807688E+06  0.4100550E-03 -0.4806518E-02 -0.5218226E-09 -0.3820083E+02  0.1767911E-02  0.1167297E-01 -0.1427907E-08  0.1779024E+07  0.1206711E-02  0.5950927E-02  0.6821210E-11 -0.3361702E+04  0.2248689E-03 -0.1440048E-02  0.9686119E-10 -0.1288497E+05  0.1166699E-02 -0.1678467E-02 -0.3310561E-09 -0.2574006E+04  0.3148986E-03 -0.2491474E-03  0.7366907E-10
  0.9999999E-01  0.5842771E+06  0.4859069E-01 -0.6713868E-02 -0.3692548E-07 -0.3601868E+02  0.5646975E-01 -0.1960755E-01 -0.4930189E-07  0.1787824E+07  0.1496055E+00  0.2059937E-02  0.1164153E-09 -0.3408687E+04  0.2972889E-01 -0.2131462E-02  0.1979060E-08 -0.1326264E+05 -0.7197918E-01  0.1831055E-02 -0.1350418E-07 -0.2619284E+04  0.3817825E-01 -0.3089905E-02  0.3637979E-09
  0.1500000E+00  0.5901454E+06  0.8307160E+00 -0.4984537E-02 -0.2852175E-07 -0.3122070E+02  0.3838255E+00 -0.1495361E-01  0.9359792E-07  0.1812632E+07  0.2574403E+01 -0.2339681E-02 -0.1629815E-08 -0.6302261E+04  0.5020299E+00 -0.9441376E-03 -0.1620501E-06 -0.1287198E+05 -0.1937936E+01 -0.2695719E-02 -0.1683831E-05 -0.7916347E+04  0.6459856E+00  0.3306071E-03 -0.6877817E-06
  0.2000000E+00  0.5926861E+06  0.6127981E+01 -0.2670288E-02  0.2654269E-07 -0.2438400E+02  0.1881970E+01 -0.2136231E-02 -0.5017966E-05  0.1820686E+07  0.1904589E+02  0.4577637E-02 -0.9313226E-07 -0.3629726E+04  0.3706490E+01  0.2560616E-02 -0.3278255E-05 -0.1479246E+05 -0.1533793E+02 -0.8277894E-02  0.1156330E-04 -0.2873288E+04  0.4748823E+01  0.2186299E-02 -0.7450581E-06
  0.2500000E+00  0.5964786E+06  0.2866555E+02  0.4760742E-02  0.3518537E-05 -0.1511890E+02  0.5962912E+01 -0.7507323E-02  0.1592934E-04  0.1835710E+07  0.8943726E+02  0.6591796E-02  0.1564622E-06 -0.3811365E+04  0.1714794E+02  0.7476806E-03 -0.6169081E-05 -0.1590889E+05 -0.7411033E+02  0.1983642E-02 -0.1931190E-04 -0.3106535E+04  0.2183961E+02  0.5302429E-03 -0.4902482E-05
  0.3000000E+00  0.6016536E+06  0.1001475E+03  0.4119873E-02  0.9946525E-05 -0.9578348E+01  0.1472301E+02  0.1841227E-01 -0.5540252E-04  0.1857965E+07  0.3140691E+03  0.1129150E-01 -0.1192093E-05 -0.6715020E+04  0.5863612E+02 -0.3814697E-03  0.1740456E-04 -0.1694428E+05 -0.2612224E+03  0.7883707E-02  0.3814697E-04 -0.8217322E+04  0.7422961E+02  0.6484985E-03 -0.2098083E-04
  0.3500000E+00  0.6073941E+06  0.2855994E+03 -0.4490444E-02 -0.2092123E-04 -0.1356960E+02  0.3629576E+02  0.1220703E-01  0.5137920E-04  0.1880175E+07  0.9005411E+03 -0.8370536E-02  0.5960464E-06 -0.8437003E+04  0.1652161E+03 -0.3106254E-03  0.1907349E-05 -0.2109226E+05 -0.7299223E+03 -0.6670271E-02  0.1144409E-03 -0.1129075E+05  0.2089276E+03 -0.1825605E-03  0.8440018E-04
  0.4000001E+00  0.6143815E+06  0.7039564E+03 -0.2670288E-03 -0.3409386E-04 -0.4550978E+02  0.7415960E+02 -0.1091003E-01  0.1828671E-03  0.1905023E+07  0.2233425E+04 -0.3433227E-02 -0.1275539E-04 -0.4873454E+04  0.3674400E+03  0.2670288E-02 -0.1735687E-03 -0.2327444E+05 -0.1730414E+04  0.2937316E-02 -0.4920959E-03 -0.4345697E+04  0.4519889E+03 -0.5960463E-03  0.1239777E-03
  0.4500001E+00  0.6234577E+06  0.1540282E+04 -0.3458658E-02 -0.1760721E-03 -0.1502950E+03  0.1245625E+03  0.6381562E-01 -0.3480911E-04  0.1942472E+07  0.4923924E+04 -0.7595484E-02 -0.1454353E-04 -0.1083185E+05  0.7847592E+03  0.1576741E-02 -0.6923676E-03 -0.2626784E+05 -0.3654648E+04 -0.2848306E-02 -0.4272461E-03 -0.1417811E+05  0.9949998E+03 -0.1271565E-03 -0.2117157E-03
  0.5000001E+00  0.6333852E+06  0.3089576E+04 -0.1208496E-01 -0.1564026E-03 -0.3657286E+03  0.1718173E+03  0.2307129E-01 -0.1058578E-03  0.1978190E+07  0.9954017E+04 -0.1342773E-02 -0.4577637E-04 -0.8522024E+04  0.1255045E+04 -0.1800537E-02 -0.3852844E-03 -0.2799952E+05 -0.6862755E+04 -0.1647949E-02  0.3448486E-02 -0.9099298E+04  0.1497929E+04 -0.1144409E-04 -0.2040863E-03
  0.5500002E+00  0.6461592E+06  0.5756210E+04 -0.2829811E-02 -0.9822845E-04 -0.7183379E+03  0.1600217E+03  0.9321731E-02 -0.8201599E-04  0.2029318E+07  0.1871982E+05  0.8877838E-02 -0.4100800E-04 -0.1299637E+05  0.1846685E+04  0.3079500E-02  0.1548767E-02 -0.2973805E+05 -0.1177969E+05 -0.1159668E-01  0.2075195E-02 -0.1600511E+05  0.2269815E+04 -0.5375253E-03  0.1169205E-02
  0.5999997E+00  0.6607748E+06  0.1017184E+05  0.1373292E-02  0.1850128E-03 -0.1140226E+04 -0.2803882E+02  0.2726238E-01  0.8888245E-03  0.2087019E+07  0.3341448E+05 -0.6612145E-02 -0.1296997E-03 -0.1770544E+05  0.1956206E+04  0.3204347E-02  0.2517700E-02 -0.2854626E+05 -0.1855466E+05  0.8138024E-03  0.8392334E-02 -0.2090799E+05  0.2385097E+04 -0.5874636E-02  0.5836487E-03
  0.6500000E+00  0.6770491E+06  0.1729766E+05 -0.1366249E-01  0.2698898E-03 -0.1405689E+04 -0.5168519E+03  0.2328726E-01 -0.1945496E-02  0.2148312E+07  0.5739423E+05  0.4695012E-02  0.1907349E-03 -0.2473984E+05  0.6957225E+03 -0.2230131E-03  0.2288818E-03 -0.2372522E+05 -0.2696840E+05 -0.8732722E-02 -0.2563477E-02 -0.2911592E+05  0.8471534E+03 -0.6271509E-02 -0.4272461E-03
  0.7000000E+00  0.6958560E+06  0.2867466E+05 -0.1831055E-02  0.3471375E-03 -0.1126032E+04 -0.1330528E+04 -0.7760184E-02 -0.3025055E-02  0.2225606E+07  0.9630995E+05  0.1116071E-01  0.4005432E-03 -0.3308413E+05 -0.3630719E+04  0.3708431E-02 -0.2883911E-02 -0.1416467E+05 -0.3625081E+05 -0.1743862E-03 -0.6347656E-02 -0.3865749E+05 -0.4208038E+04  0.2504076E-02  0.5409241E-02
  0.7500001E+00  0.7147474E+06  0.4643214E+05 -0.4801432E-02 -0.1419067E-02  0.9032796E+02 -0.2184840E+04 -0.5940754E-02  0.4516602E-02  0.2303542E+07  0.1579165E+06 -0.2766927E-02 -0.2136230E-03 -0.4116511E+05 -0.1307946E+05 -0.2644857E-03 -0.1275635E-01  0.6574329E+03 -0.4457830E+05  0.1464844E-02  0.2075195E-01 -0.4750761E+05 -0.1519925E+05 -0.3499349E-02 -0.9429932E-02
  0.8000000E+00  0.7303436E+06  0.7258863E+05 -0.1281738E-01  0.2529144E-02  0.2219675E+04 -0.2374723E+04 -0.1406097E+00 -0.1455688E-01  0.2369320E+07  0.2499829E+06  0.6866456E-02  0.5035400E-03 -0.4496465E+05 -0.2989274E+05 -0.8010864E-03  0.5950928E-02  0.2003001E+05 -0.4926503E+05  0.1683235E-02  0.2246094E-01 -0.5125069E+05 -0.3436154E+05 -0.8049011E-02 -0.4692078E-02
  0.8500000E+00  0.7388309E+06  0.1069510E+06 -0.3303079E-02  0.1312256E-02  0.4367005E+04 -0.1034757E+04  0.7841223E-01 -0.4394531E-02  0.2417034E+07  0.3736323E+06 -0.3159467E-02  0.0000000E+00 -0.3855791E+05 -0.5442345E+05  0.5026425E-03 -0.1617432E-02  0.4134130E+05 -0.4704381E+05  0.2010570E-02 -0.4150391E-02 -0.4324248E+05 -0.6167787E+05 -0.3249225E-02  0.6884575E-02
  0.9000000E+00  0.7371549E+06  0.1449933E+06  0.5289713E-02 -0.1922607E-02  0.4837323E+04  0.1959994E+04 -0.1410590E+00 -0.5444336E-01  0.2431106E+07  0.5142531E+06 -0.9494358E-03 -0.2899170E-02 -0.1599067E+05 -0.8204639E+05  0.7120768E-02 -0.5332947E-02  0.6014233E+05 -0.3578307E+05  0.8544922E-02 -0.4882812E-02 -0.1747950E+05 -0.9194052E+05  0.2102322E-02  0.1900482E-01
  0.9500000E+00  0.7297014E+06  0.1798798E+06 -0.9444387E-02  0.6912231E-02  0.2442696E+04  0.5155457E+04 -0.5705180E-01 -0.1004028E-01  0.2423846E+07  0.6479439E+06 -0.6039268E-02  0.1037598E-02  0.2390722E+05 -0.1034199E+06 -0.7002981E-02  0.8544922E-03  0.7172008E+05 -0.1589746E+05  0.2569901E-03 -0.5859375E-02  0.2700555E+05 -0.1144063E+06  0.1445569E-02 -0.1757812E-01
  0.1000000E+01  0.7269542E+06  0.2106363E+06  0.1190185E-01  0.1654053E-01 -0.2095069E+04  0.6108910E+04  0.1018066E+00 -0.8416748E-01  0.2430754E+07  0.7704711E+06 -0.1123047E-01  0.6103516E-03  0.7693024E+05 -0.1072728E+06  0.1220703E-01  0.2990723E-02  0.7368360E+05  0.9846549E+04  0.3808593E-01  0.5371094E-02  0.8478476E+05 -0.1169972E+06  0.2609253E-02 -0.4299927E-01
  0.1050000E+01  0.7386382E+06  0.2500165E+06 -0.3563290E-01  0.8605957E-02 -0.6185307E+04  0.3160509E+04  0.5812872E-01 -0.3753662E-01  0.2494423E+07  0.9298741E+06 -0.1976376E-02  0.4272461E-03  0.1353721E+06 -0.8085402E+05 -0.1708984E-01 -0.1708984E-02  0.6580280E+05  0.3883573E+05  0.2092634E-01 -0.1380920E-01  0.1473078E+06 -0.8692152E+05  0.9729294E-02  0.8270264E-02
  0.1100000E+01  0.7549389E+06  0.3243249E+06 -0.4949396E-01 -0.5523682E-02 -0.6619809E+04 -0.3009831E+04 -0.1078658E+00 -0.2151489E-01  0.2579203E+07  0.1227493E+07 -0.8877841E-03 -0.6103516E-04  0.1822887E+06 -0.7871898E+04 -0.9321733E-02 -0.2258301E-02  0.4587104E+05  0.6771782E+05 -0.6658381E-03 -0.3112793E-01  0.1958690E+06 -0.7398818E+04  0.4855069E-02  0.1232910E-01
  0.1150000E+01  0.7345898E+06  0.4449732E+06 -0.2706777E-02  0.7049561E-02 -0.1822729E+04 -0.7858692E+04 -0.2441406E-02  0.1909180E+00  0.2524446E+07  0.1713878E+07 -0.8491849E-03  0.2685547E-02  0.1811371E+06  0.1137284E+06  0.5838146E-03 -0.3601074E-02  0.1255102E+05  0.8612324E+05 -0.5731998E-02 -0.3662109E-02  0.1919941E+06  0.1219629E+06  0.3293245E-01 -0.1079369E-01
  0.1200000E+01  0.6465659E+06  0.5537482E+06 -0.3677368E-01  0.9094238E-02  0.4102986E+04 -0.5870841E+04 -0.7120769E-02  0.2374268E-01  0.2202825E+07  0.2171816E+07  0.3051758E-03  0.6103516E-03  0.1032338E+06  0.2285768E+06  0.4272461E-02 -0.3759384E-02 -0.2382745E+05  0.7990027E+05  0.2512614E-01 -0.1318359E-01  0.1078926E+06  0.2420000E+06  0.1462301E-01 -0.1007080E-02
  0.1250000E+01  0.5402591E+06  0.5786387E+06 -0.8691405E-02 -0.3234863E-01  0.5301372E+04  0.4308829E+03  0.3710937E-01 -0.3784180E-02  0.1797102E+07  0.2312776E+07 -0.2148437E-02 -0.8544922E-03 -0.1230740E+05  0.2647875E+06 -0.1904297E-01 -0.1525879E-01 -0.4590809E+05  0.5218656E+05  0.4599609E-01 -0.3662109E-02 -0.1406185E+05  0.2773216E+06  0.4141235E-02  0.1016235E-01
  0.1300000E+01  0.4781620E+06  0.5455031E+06 -0.1549354E-02  0.2337646E-01  0.2412840E+04  0.4540693E+04 -0.7676346E-01 -0.5310059E-01  0.1554714E+07  0.2222071E+07  0.4507212E-02 -0.1342773E-02 -0.1102861E+06  0.2230504E+06 -0.2345159E-01  0.2563477E-02 -0.5172911E+05  0.1994151E+05  0.1333384E-01 -0.5859375E-02 -0.1156800E+06  0.2313788E+06 -0.1431979E-02 -0.1828003E-01
  0.1350000E+01  0.4632908E+06  0.5181597E+06  0.1175492E-02  0.2728271E-01 -0.8987029E+03  0.4475111E+04 -0.5651404E-02  0.5798340E-01  0.1498652E+07  0.2151335E+07  0.7324220E-02  0.9033203E-02 -0.1757008E+06  0.1290405E+06  0.9946471E-02  0.1666260E-01 -0.4773389E+05 -0.1001447E+05  0.1464844E-01  0.1892090E-02 -0.1827009E+06  0.1324982E+06  0.5635580E-01 -0.2780914E-01
  0.1400000E+01  0.4646465E+06  0.5327862E+06  0.3487723E-03  0.1025391E-01 -0.2584301E+04  0.1738450E+04  0.6944929E-01 -0.5554199E-01  0.1509109E+07  0.2255298E+07  0.1918248E-02  0.3906250E-02 -0.1994413E+06 -0.7547133E+04  0.3356934E-02 -0.7202148E-02 -0.3593535E+05 -0.3637132E+05  0.2406529E-01  0.1953125E-02 -0.2062480E+06 -0.9442235E+04  0.3226144E-02  0.3494263E-02
  0.1450000E+01  0.4497787E+06  0.5881361E+06  0.2778152E-02  0.1531982E-01 -0.2270971E+04 -0.1474969E+04  0.6377121E-01  0.7128906E-01  0.1450296E+07  0.2539212E+07 -0.3199084E-02 -0.1464844E-02 -0.1639432E+06 -0.1597133E+06 -0.4882812E-02  0.1098633E-02 -0.1687862E+05 -0.5353629E+05 -0.8418642E-03 -0.8496094E-01 -0.1686748E+06 -0.1664180E+06  0.1239645E-01 -0.1449585E-01
  0.1500000E+01  0.3991153E+06  0.6506274E+06 -0.7303873E-02  0.1159668E-02 -0.5301760E+03 -0.3237766E+04 -0.9765624E-02  0.3112793E-02  0.1230977E+07  0.2864915E+07  0.3011067E-02 -0.4882812E-02 -0.7035291E+05 -0.2645763E+06 -0.3824869E-02 -0.1159668E-02  0.4580914E+04 -0.5384131E+05 -0.6347656E-02  0.8203125E-01 -0.7158169E+05 -0.2737860E+06 -0.1803589E-01  0.6927490E-02
  0.1550000E+01  0.3168510E+06  0.6634426E+06  0.3063571E-01  0.9521484E-02  0.1366032E+04 -0.2315506E+04 -0.6457914E-02 -0.5072021E-01  0.8608036E+06  0.2977920E+07  0.7521106E-02  0.7812500E-02  0.4112808E+05 -0.2619247E+06 -0.7481729E-03  0.2441406E-03  0.2007401E+05 -0.3616186E+05  0.3969254E-01  0.1708984E-02  0.4389550E+05 -0.2706230E+06  0.3437658E-01  0.1295166E+00
  0.1600000E+01  0.2502870E+06  0.5806490E+06  0.3652573E-02 -0.3283691E-01  0.1747837E+04  0.6081146E+03 -0.3627777E-01 -0.3683472E-01  0.5479191E+06  0.2657845E+07  0.2059937E-02  0.3173828E-02  0.1119666E+06 -0.1615739E+06  0.3814697E-02 -0.8544922E-03  0.2377895E+05 -0.1122853E+05 -0.5340576E-02  0.1757812E-01  0.1174182E+06 -0.1659399E+06  0.1888275E-02  0.1007080E-02
  0.1650000E+01  0.2491968E+06  0.4666806E+06  0.5937056E-02 -0.1892090E-02  0.4483812E+03  0.2408206E+04  0.1416755E-01  0.1672211E+00  0.5281674E+06  0.2179250E+07  0.4069010E-03 -0.9765625E-03  0.1261873E+06 -0.4108976E+05  0.1775568E-02  0.4260254E-01  0.1909523E+05  0.7578631E+04  0.1864346E-01 -0.1282501E-01  0.1320085E+06 -0.3995457E+05 -0.1233130E-01 -0.3158569E-01
  0.1700000E+01  0.2907721E+06  0.4240593E+06 -0.4882813E-02 -0.9765625E-03 -0.9061840E+03  0.1600526E+04 -0.7184198E-01  0.3239441E-01  0.7102087E+06  0.2018796E+07  0.4308365E-03  0.2685547E-02  0.1100380E+06  0.5708659E+05 -0.5959904E-02  0.1910067E-01  0.1225261E+05  0.1833731E+05  0.5026425E-03  0.1580811E-01  0.1151873E+06  0.6337448E+05  0.1617432E-01 -0.2258301E-02
  0.1750000E+01  0.3155115E+06  0.4809200E+06  0.1429967E-02  0.7202148E-02 -0.1115582E+04 -0.6395651E+03 -0.3777205E-01  0.9211731E-01  0.8178892E+06  0.2331518E+07  0.1517160E-02  0.4150391E-02  0.7791271E+05  0.1417923E+06  0.7045202E-02  0.3784180E-02  0.4888695E+04  0.2441157E+05  0.1674107E-02 -0.8789062E-02  0.8066767E+05  0.1534180E+06 -0.5554200E-01  0.2717781E-01
  0.1800000E+01  0.2676312E+06  0.5603304E+06  0.4968644E-02  0.1739502E-01  0.2075284E+02 -0.1907308E+04  0.3655328E-01  0.1187286E+00  0.5724471E+06  0.2764254E+07  0.6426706E-02  0.1708984E-02  0.1514929E+05  0.2045216E+06  0.6022984E-02 -0.1953125E-02 -0.4166898E+04  0.2392471E+05  0.1436022E-01  0.1586914E-02  0.1247975E+05  0.2193134E+06 -0.9587606E-02 -0.4870605E-01
  0.1850000E+01  0.1969017E+06  0.4737448E+06 -0.8250057E-02  0.1098633E-01  0.8006434E+03 -0.2358194E+03 -0.5582243E-01 -0.2124023E-01  0.2041155E+06  0.2380117E+07  0.8866595E-03  0.3417969E-02 -0.5744587E+05  0.1552072E+06 -0.1880543E-02  0.7812500E-02 -0.9808153E+04  0.1066135E+05 -0.1253695E-02 -0.2319336E-02 -0.6520918E+05  0.1623557E+06  0.1304008E-01 -0.4846191E-01
  0.1900000E+01  0.2133696E+06  0.3475064E+06  0.5216097E-02 -0.6164551E-02  0.2435918E+03  0.9224393E+03  0.6424754E-02  0.2960205E-01  0.2674486E+06  0.1778654E+07 -0.3372996E-03  0.2441406E-02 -0.7498533E+05  0.5514280E+05  0.1027961E-02 -0.4394531E-02 -0.8188619E+04 -0.1061929E+04  0.2377159E-02  0.2169800E-01 -0.8238297E+05  0.5249512E+05  0.5782279E-03 -0.4137421E-01
  0.1950000E+01  0.2528906E+06  0.3183904E+06 -0.2322858E-01  0.1342773E-01 -0.2476325E+03  0.6084343E+03 -0.2228566E-01 -0.3163910E-01  0.4530345E+06  0.1655896E+07  0.6260017E-03 -0.2197266E-02 -0.7011173E+05 -0.1451313E+05 -0.4695013E-03  0.1544189E-01 -0.5513299E+04 -0.6257181E+04 -0.2817008E-03 -0.1831055E-03 -0.7585123E+05 -0.2357272E+05 -0.1856095E-01  0.1538086E-01
  0.2000000E+01  0.2731078E+06  0.3559813E+06  0.4234314E-03 -0.1916504E-01 -0.3412937E+03 -0.1928202E+03 -0.4931641E-01  0.3970337E-01  0.5435282E+06  0.1881678E+07  0.1045227E-02  0.3173828E-02 -0.5930127E+05 -0.8592839E+05 -0.1249313E-02  0.1831055E-02 -0.2916684E+04 -0.9717839E+04  0.9765626E-03  0.8850098E-02 -0.6207046E+05 -0.1007479E+06  0.2325916E-01 -0.3295898E-02
Zone t="Motion of body    1 in DoF   2",I=    40,F=POINT
  0.5000000E-01  0.5340576E-02  0.1591616E-11  0.5807514E+06  0.4115233E-03 -0.1220703E-02 -0.1492140E-10 -0.1778970E+07 -0.1233214E-02 -0.9613036E-02  0.1023182E-11 -0.1087189E-01 -0.1101903E-07  0.1093373E-03 -0.5186962E-12  0.2687622E+04  0.2389962E-03  0.1072884E-04  0.5798029E-11 -0.3464893E+04 -0.3112512E-03 -0.1430511E-03 -0.3183231E-11  0.2460768E+03  0.5901045E-06
  0.9999999E-01 -0.1831055E-02  0.1353328E-08  0.5842612E+06  0.4917589E-01  0.5912781E-03 -0.4038156E-09 -0.1787778E+07 -0.1517938E+00  0.2281189E-01 -0.5384209E-09  0.1939774E-01  0.4554495E-06  0.4269183E-04  0.1991793E-09  0.2771952E+04  0.3014177E-01  0.4291535E-04  0.1957233E-08 -0.3570928E+04 -0.3881076E-01 -0.1478195E-03 -0.2910383E-10  0.2485129E+03  0.3265046E-04
  0.1500000E+00  0.1525879E-03  0.1862645E-08  0.5901095E+06  0.8425686E+00  0.1703898E-02 -0.4016329E-08 -0.1812514E+07 -0.2611901E+01  0.1118978E-01  0.2700835E-07  0.1070658E-01  0.5507900E-06 -0.2697110E-04 -0.2037268E-09  0.2797573E+04  0.5121399E+00 -0.5880991E-04 -0.1315493E-07 -0.3575911E+04 -0.6585005E+00 -0.1335144E-03  0.2793968E-08  0.1488506E+03  0.1325049E-03
  0.2000000E+00  0.8850099E-02 -0.8009374E-07  0.5926787E+06  0.6221881E+01 -0.4901886E-02  0.2281740E-07 -0.1820667E+07 -0.1933649E+02 -0.3433228E-02 -0.2887100E-06  0.2542496E-01  0.5761627E-05 -0.2466142E-04  0.3026798E-07  0.3162119E+04  0.3794313E+01  0.1001358E-03  0.1629815E-06 -0.4057458E+04 -0.4857481E+01 -0.1907349E-04  0.4842877E-07  0.2503984E+03  0.7311364E-03
  0.2500000E+00  0.5065918E-02 -0.4842877E-07  0.5964776E+06  0.2919484E+02 -0.1373291E-02  0.1993030E-06 -0.1835709E+07 -0.9108195E+02 -0.1416016E-01 -0.4693866E-06  0.1092529E-01 -0.1385529E-04 -0.2729893E-04 -0.5401671E-07  0.3475708E+04  0.1779792E+02 -0.1239777E-04 -0.1452863E-06 -0.4438027E+04 -0.2268822E+02 -0.1754761E-03 -0.2682209E-06  0.2523344E+03  0.2130440E-02
  0.3000000E+00 -0.1118978E-02 -0.1713634E-05  0.6016437E+06  0.1025533E+03  0.3128052E-02  0.2600253E-05 -0.1857924E+07 -0.3216442E+03  0.3458659E-02 -0.4470348E-06  0.2866109E-01  0.8600205E-04  0.1340111E-03  0.5494803E-06  0.3843252E+04  0.6238803E+02  0.1144409E-03 -0.3591180E-05 -0.4862900E+04 -0.7910366E+02  0.6993611E-04  0.3576279E-06  0.1714951E+03 -0.2050758E-03
  0.3500000E+00  0.3923689E-03  0.2533197E-05  0.6074192E+06  0.2947757E+03  0.4119874E-02 -0.6645918E-05 -0.1880254E+07 -0.9296995E+03  0.8806502E-02  0.8940697E-06 -0.1918248E-02  0.4657507E-03  0.1768555E-03 -0.1776963E-05  0.4791545E+04  0.1781615E+03  0.1376016E-03  0.1055002E-04 -0.6088468E+04 -0.2242893E+03  0.1089914E-03  0.2145767E-05 -0.1682487E+02  0.4849272E-01
  0.4000001E+00  0.8163450E-02 -0.5245209E-05  0.6144722E+06  0.7309805E+03  0.7438659E-03  0.4589558E-05 -0.1905313E+07 -0.2318952E+04 -0.2357482E-01 -0.3123283E-04  0.2401351E-01  0.1490414E-03 -0.1255423E-03  0.2712011E-05  0.5453766E+04  0.4343470E+03  0.9775160E-04  0.1597404E-04 -0.6848880E+04 -0.5424345E+03 -0.1239776E-03  0.8583069E-05  0.2634641E+03 -0.3411925E+00
  0.4500001E+00  0.1254611E-01 -0.7390976E-05  0.6235571E+06  0.1619565E+04  0.4577636E-03 -0.1311302E-05 -0.1942779E+07 -0.5178872E+04  0.4204643E-02 -0.5197525E-04 -0.1251220E-01 -0.1221597E-02 -0.2616643E-03 -0.2175570E-05  0.6381921E+04  0.9443378E+03 -0.2903408E-03 -0.2908707E-04 -0.7960022E+04 -0.1170281E+04 -0.7375079E-03  0.0000000E+00  0.4887505E+02  0.1600342E+01
  0.5000001E+00  0.1098633E-02 -0.4220009E-04  0.6335268E+06  0.3277465E+04  0.1068115E-03 -0.2861023E-05 -0.1978646E+07 -0.1055837E+05 -0.4394531E-02 -0.6103516E-04  0.3051758E-04 -0.2228260E-02 -0.2459288E-03 -0.2115965E-05  0.7037125E+04  0.1842476E+04 -0.1564026E-03 -0.2193451E-04 -0.8665281E+04 -0.2261990E+04 -0.1678467E-03 -0.4005432E-04  0.2834837E+03 -0.3447825E+01
  0.5500002E+00 -0.2219460E-03  0.1955032E-04  0.6461728E+06  0.6166022E+04 -0.2136230E-02 -0.2241135E-04 -0.2029365E+07 -0.2005363E+05  0.2885297E-02 -0.6484985E-04  0.2760453E-01 -0.3477097E-02  0.2362511E-04 -0.1078844E-04  0.7660430E+04  0.3301752E+04 -0.7976183E-04  0.1401901E-03 -0.9364574E+04 -0.4012599E+04 -0.2774324E-04 -0.9918213E-04  0.5390797E+02  0.2282124E+01
  0.5999997E+00 -0.6205243E-02 -0.5435944E-04  0.6602906E+06  0.1090479E+05  0.2517701E-02  0.1482964E-03 -0.2085426E+07 -0.3582436E+05  0.4669191E-01  0.4577637E-04  0.4491172E-01  0.4235744E-02 -0.1193087E-03  0.6949902E-04  0.7408894E+04  0.5422000E+04  0.2129874E-03  0.3623962E-04 -0.8989910E+04 -0.6523915E+04  0.8265181E-03  0.8392334E-04  0.1734778E+03  0.7829933E+01
  0.6500000E+00 -0.5821815E-02 -0.7057190E-04  0.6753988E+06  0.1827823E+05 -0.4037710E-02 -0.3080368E-03 -0.2142832E+07 -0.6065384E+05 -0.9765625E-02  0.3433228E-03  0.2976638E-01  0.4251480E-02  0.3470824E-03 -0.4911423E-04  0.5921892E+04  0.8209403E+04  0.4988450E-04  0.3490448E-03 -0.7148027E+04 -0.9766974E+04  0.4577637E-03  0.7629395E-05  0.1861838E+03  0.6250494E+01
  0.7000000E+00  0.8719308E-04  0.2670288E-04  0.6922739E+06  0.2926070E+05  0.1438686E-02  0.1907349E-04 -0.2213566E+07 -0.9828695E+05  0.2790178E-02  0.9765625E-03  0.1096453E-01  0.3156662E-02  0.3286344E-03  0.1983643E-03  0.2624380E+04  0.1140966E+05 -0.6948198E-04 -0.4234314E-03 -0.3229131E+04 -0.1343321E+05  0.9809221E-04  0.5187988E-03  0.2052714E+03  0.2216971E+02
  0.7500001E+00  0.5289713E-02 -0.1411438E-03  0.7092154E+06  0.4498359E+05 -0.1607259E-02  0.1296997E-03 -0.2284708E+07 -0.1529955E+06 -0.1236979E-01 -0.3890991E-03  0.3527832E-01  0.9759903E-02 -0.8376438E-04 -0.2973080E-03 -0.2838051E+04  0.1431656E+05 -0.1017252E-04 -0.4196167E-04  0.3107273E+04 -0.1666327E+05 -0.3763834E-03  0.3051758E-03  0.2669475E+03  0.1312884E+02
  0.8000000E+00 -0.2136230E-02  0.7247925E-03  0.7251721E+06  0.6669776E+05  0.4577637E-03  0.4844666E-03 -0.2351485E+07 -0.2296959E+06  0.1846313E-01 -0.2120972E-02  0.9002686E-02  0.5962372E-02 -0.5692244E-04  0.6182194E-03 -0.1036667E+05  0.1580804E+05  0.2384186E-04  0.1296997E-03  0.1165640E+05 -0.1822375E+05 -0.1430512E-04 -0.6103516E-04  0.3332516E+03  0.2695900E+02
  0.8500000E+00  0.4595588E-02  0.3051758E-03  0.7397261E+06  0.9565645E+05  0.1130946E-02 -0.3623962E-03 -0.2420129E+07 -0.3341748E+06 -0.1450483E-01  0.1342773E-02 -0.1385857E-01  0.2554703E-01 -0.1424902E-03 -0.1057386E-03 -0.1911503E+05  0.1435576E+05  0.6193273E-03  0.6828308E-03  0.2136619E+05 -0.1642718E+05  0.1436121E-03 -0.5187988E-03  0.4331494E+03  0.7317657E+02
  0.9000000E+00 -0.2441406E-02 -0.7476807E-03  0.7506099E+06  0.1331191E+06 -0.3221300E-02 -0.6256104E-03 -0.2478787E+07 -0.4721185E+06 -0.1071506E-01 -0.3479004E-02 -0.2373589E-02  0.1259613E-01  0.4344516E-04 -0.8383989E-03 -0.2714108E+05  0.8397974E+04  0.1051161E-02 -0.1640320E-03  0.3008766E+05 -0.9705680E+04 -0.3390842E-04  0.1586914E-02  0.5303147E+03  0.1658183E+03
  0.9500000E+00 -0.1021536E-01  0.1068115E-02  0.7552384E+06  0.1796816E+06  0.2859015E-02 -0.9384155E-03 -0.2515798E+07 -0.6471879E+06 -0.1773232E-01 -0.2716064E-02  0.2451043E-01 -0.1663208E-02  0.1044022E-02 -0.2274513E-03 -0.3156021E+05 -0.2695743E+04  0.3292686E-03  0.5722046E-04  0.3463248E+05  0.2485062E+04  0.9958367E-03 -0.7324219E-03  0.6664733E+03  0.3409157E+03
  0.1000000E+01  0.1123047E-01 -0.1525879E-03  0.7503594E+06  0.2344629E+06 -0.7797241E-02 -0.7629395E-05 -0.2516357E+07 -0.8575659E+06  0.5981445E-02 -0.5310059E-02  0.5947876E-01  0.1054077E+00  0.8306503E-03  0.1194000E-02 -0.2944437E+05 -0.1757078E+05  0.5722045E-03 -0.2622604E-03  0.3201488E+05  0.1845596E+05  0.0000000E+00 -0.9422302E-03  0.7485013E+03  0.6572068E+03
  0.1050000E+01  0.7440476E-02  0.3387451E-02  0.7357522E+06  0.2947251E+06  0.1787458E-02  0.1136780E-02 -0.2483711E+07 -0.1096085E+07  0.4650297E-03 -0.1098633E-02  0.3237769E-01  0.1084900E+00  0.5096481E-03 -0.3576279E-03 -0.1928226E+05 -0.3238039E+05 -0.4432315E-03 -0.1983643E-03  0.2097854E+05  0.3405531E+05 -0.8138021E-03  0.1205444E-02  0.7450592E+03  0.1157195E+04
  0.1100000E+01 -0.1553622E-02  0.4028320E-02  0.7110977E+06  0.3571914E+06 -0.1248446E-03  0.1571655E-02 -0.2413349E+07 -0.1351814E+07 -0.2108487E-01 -0.1525879E-02  0.8209229E-01  0.5364990E-01  0.9346009E-03  0.2069473E-03 -0.2309316E+04 -0.4135270E+05  0.3121116E-04  0.1518250E-02  0.3023549E+04  0.4315685E+05 -0.5271218E-03 -0.5798340E-03  0.4990834E+03  0.1838322E+04
  0.1150000E+01 -0.2016814E-02 -0.1373291E-01  0.6767533E+06  0.4184282E+06 -0.2653703E-03  0.1022339E-02 -0.2301785E+07 -0.1611639E+07  0.2452021E-01 -0.4638672E-02  0.1495361E+00  0.3997803E-02  0.1470317E-02  0.6580353E-03  0.1678320E+05 -0.3927624E+05 -0.3482985E-04 -0.1411438E-02 -0.1669224E+05  0.4061717E+05  0.1811152E-02  0.8544922E-03 -0.1589712E+03  0.2591211E+04
  0.1200000E+01  0.3662110E-02 -0.2441406E-02  0.6353288E+06  0.4752291E+06 -0.6739299E-03 -0.4577637E-04 -0.2158787E+07 -0.1863928E+07 -0.3611247E-01  0.1104736E-01  0.7202148E-01  0.3306580E+00  0.1257261E-02  0.7324219E-03  0.3148775E+05 -0.2464505E+05 -0.6548564E-03 -0.6179810E-03 -0.3156150E+05  0.2546962E+05  0.2880096E-02 -0.5615234E-02 -0.1232778E+04  0.3090895E+04
  0.1250000E+01  0.5566406E-02  0.3051758E-02  0.5880121E+06  0.5243856E+06  0.2941894E-02 -0.2807617E-02 -0.1987920E+07 -0.2095972E+07 -0.2172851E-01 -0.8911133E-02 -0.1178467E+00 -0.5371094E-01 -0.3929138E-03  0.3337860E-04  0.3626540E+05 -0.1220766E+04  0.3784179E-03  0.5340576E-04 -0.3608015E+05  0.1804717E+04 -0.2441406E-04  0.1220703E-03 -0.2722961E+04  0.2881657E+04
  0.1300000E+01  0.3756010E-03 -0.8666992E-02  0.5369017E+06  0.5624253E+06 -0.3051758E-03 -0.9002686E-03 -0.1793901E+07 -0.2291038E+07  0.5634015E-02 -0.1019287E-01 -0.2763015E+00  0.8621216E-01  0.8804982E-03  0.2099991E-02  0.2945129E+05  0.2271771E+05 -0.3462571E-03 -0.5378723E-03 -0.2903156E+05 -0.2179118E+05  0.2183181E-02  0.1785278E-02 -0.4226499E+04  0.1418079E+04
  0.1350000E+01 -0.1356337E-03  0.4272461E-02  0.4866495E+06  0.5873809E+06 -0.1390245E-02  0.2685547E-02 -0.1595609E+07 -0.2438616E+07 -0.2983941E-02  0.2563477E-02  0.3018528E+00 -0.1686096E+00 -0.4514059E-03 -0.5607605E-03  0.1421021E+05  0.3835407E+05 -0.1525879E-03 -0.6046295E-03 -0.1398193E+05 -0.3680909E+05 -0.7911965E-03  0.2700806E-02 -0.5124254E+04 -0.1485748E+04
  0.1400000E+01 -0.6103516E-03  0.2075195E-02  0.4394899E+06  0.5992087E+06  0.9046283E-03 -0.1670837E-02 -0.1402738E+07 -0.2536470E+07  0.4263742E-01  0.3356934E-02 -0.3322710E+00 -0.3977051E+00  0.2790179E-02 -0.1788139E-03 -0.3330318E+04  0.4037981E+05 -0.2125331E-03  0.6370544E-03  0.2945249E+04 -0.3840882E+05 -0.3378732E-02 -0.2441406E-03 -0.4687292E+04 -0.5602815E+04
  0.1450000E+01 -0.1262796E-03  0.5859375E-02  0.3977535E+06  0.6005328E+06 -0.1494309E-02 -0.4348755E-03 -0.1225778E+07 -0.2592892E+07  0.1725822E-02 -0.2270508E-01 -0.5602606E-01 -0.9393311E-01  0.1946811E-03  0.1749039E-02 -0.1691828E+05  0.2905715E+05  0.6577063E-04  0.1525879E-04  0.1571476E+05 -0.2734554E+05  0.2104660E-03 -0.1190186E-02 -0.2467583E+04 -0.9772882E+04
  0.1500000E+01  0.2848307E-03  0.1318359E-01  0.3612542E+06  0.5931219E+06 -0.1057943E-02 -0.1739502E-02 -0.1064376E+07 -0.2611974E+07  0.5777994E-02 -0.1019287E-01  0.7389322E+00  0.3569946E+00 -0.1236597E-03 -0.2307892E-02 -0.2259006E+05  0.9592919E+04  0.4768371E-05  0.1220703E-03  0.2077944E+05 -0.9016147E+04  0.1795451E-02 -0.1220703E-02  0.1471946E+04 -0.1215594E+05
  0.1550000E+01  0.5512853E-03  0.2929688E-02  0.3305645E+06  0.5793157E+06  0.4823746E-03 -0.6332397E-03 -0.9222061E+06 -0.2600676E+07 -0.1165575E-01 -0.3451538E-01  0.4227374E+00 -0.2163025E+01 -0.8736887E-04 -0.1800537E-02 -0.1979377E+05 -0.1037609E+05  0.2399568E-03  0.2288818E-04  0.1802359E+05  0.9331088E+04 -0.5906628E-04 -0.3601074E-02  0.6204814E+04 -0.1089217E+05
  0.1600000E+01 -0.1792908E-02 -0.7324219E-03  0.3050775E+06  0.5594529E+06 -0.8583069E-03 -0.3814697E-03 -0.7983327E+06 -0.2560811E+07  0.6523132E-02 -0.1852417E-01  0.1611233E+00  0.4147949E+00 -0.1102686E-02 -0.6523132E-03 -0.1094279E+05 -0.2392647E+05  0.0000000E+00 -0.4539490E-03  0.9854544E+04  0.2146752E+05  0.6580353E-03  0.1647949E-02  0.1010541E+05 -0.4620370E+04
  0.1650000E+01 -0.3662109E-02  0.2319336E-02  0.2850300E+06  0.5355416E+06  0.3791577E-03 -0.7362366E-03 -0.6952098E+06 -0.2500014E+07  0.4106001E-02 -0.8178711E-02  0.9117542E+00 -0.1070862E+01 -0.3467907E-04  0.5626678E-04 -0.9647235E+02 -0.2698924E+05  0.1618356E-04  0.1964569E-03  0.1015064E+03  0.2395996E+05  0.1942028E-03  0.3890991E-03  0.1114404E+05  0.5810555E+04
  0.1700000E+01 -0.1256606E-03  0.1586914E-02  0.2698595E+06  0.5098623E+06 -0.1463049E-02 -0.1144409E-04 -0.6110070E+06 -0.2425941E+07 -0.3590304E-04 -0.1876831E-01  0.1149929E+00  0.5079956E+00  0.9763943E-03  0.3890991E-03  0.8528438E+04 -0.1967748E+05 -0.3365910E-04 -0.6294250E-04 -0.7485158E+04  0.1736794E+05  0.8886002E-03 -0.5950928E-03  0.7900381E+04  0.1733251E+05
  0.1750000E+01  0.4045759E-02 -0.5615234E-02  0.2584647E+06  0.4832371E+06 -0.7324219E-03  0.1300812E-02 -0.5422586E+06 -0.2342714E+07 -0.7254465E-02 -0.1033020E-01  0.3320836E+00  0.5087891E+00  0.1596723E-03  0.5912781E-04  0.1210769E+05 -0.6047274E+04 -0.1166208E-03 -0.1258850E-03 -0.1055354E+05  0.5397067E+04  0.4403251E-03  0.6713867E-03  0.5276899E+03  0.2471701E+05
  0.1800000E+01  0.5764432E-03 -0.1220703E-02  0.2502868E+06  0.4570789E+06  0.1330906E-02  0.2155304E-03 -0.4871486E+06 -0.2256474E+07  0.2780491E-02  0.5935669E-02  0.8256489E-01  0.3211060E+00 -0.9536744E-05  0.4725456E-03  0.1010962E+05  0.7661509E+04 -0.1709081E-04 -0.7629395E-05 -0.8822056E+04 -0.6524190E+04  0.2117621E-04  0.1083374E-02 -0.8714875E+04  0.2284031E+05
  0.1850000E+01  0.6309716E-03  0.4150391E-02  0.2444267E+06  0.4304833E+06 -0.1237199E-03  0.5435944E-03 -0.4420193E+06 -0.2163559E+07  0.3959038E-03  0.3688812E-01  0.8272120E-01  0.5351562E+00  0.1546499E-04  0.2122879E-02  0.4330237E+04  0.1561842E+05  0.7216996E-04  0.4005432E-04 -0.3832775E+04 -0.1342688E+05  0.9361475E-03  0.3356934E-03 -0.1596418E+05  0.9361763E+04
  0.1900000E+01  0.7027075E-04 -0.6103516E-03  0.2411472E+06  0.4039338E+06  0.1670436E-02 -0.2899170E-03 -0.4089509E+06 -0.2066118E+07 -0.7516962E-02 -0.1309967E-01  0.1019578E-01  0.6122437E+00 -0.4232597E-03  0.4425049E-03 -0.1980443E+04  0.1491338E+05 -0.2007736E-05 -0.2384186E-04  0.1594517E+04 -0.1288806E+05 -0.1052053E-02 -0.5073547E-03 -0.1680951E+05 -0.1260139E+05