VARIABLES="w (rad/s)"
"abs(F   1   1)" "angle(F   1   1)"
"abs(F   1   2)" "angle(F   1   2)"
"abs(F   1   3)" "angle(F   1   3)"
"abs(F   1   4)" "angle(F   1   4)"
"abs(F   1   5)" "angle(F   1   5)"
"abs(F   1   6)" "angle(F   1   6)"
Zone t="Diffraction force - beta =   0.000 deg",I=   525,F=POINT
  0.4000000E-01  0.9320853E+04 -0.1570777E+01  0.1910667E-04  0.1025094E+01  0.4240627E+03 -0.3040023E+01  0.1669100E-03  0.1428474E-01  0.4205940E+05  0.1570815E+01  0.1186762E-10 -0.1974430E+01
  0.8000000E-01  0.1904733E+05 -0.1570720E+01  0.5305645E-03  0.2153595E+01  0.1724974E+04 -0.3041162E+01  0.1560774E-02  0.7414218E+00  0.8475350E+05  0.1570872E+01  0.3567179E-09  0.1603947E+01
  0.1200000E+00  0.2879353E+05 -0.1570618E+01  0.1282844E-02  0.1240046E+01  0.3791499E+04 -0.3037429E+01  0.3329232E-02 -0.1129825E+01  0.1280312E+06  0.1570973E+01  0.1207810E-08 -0.1569290E+01
  0.1600000E+00  0.3874048E+05 -0.1570461E+01  0.2003290E-02  0.8651778E+00  0.6606867E+04 -0.3033348E+01  0.6998532E-02  0.1467663E+01  0.1721058E+06  0.1571128E+01  0.2735847E-08  0.1562818E+01
  0.2000000E+00  0.4903727E+05 -0.1570232E+01  0.1645597E-02  0.2003500E+01  0.1015164E+05 -0.3028774E+01  0.8744594E-02  0.2756256E+01  0.2173550E+06  0.1571356E+01  0.2987188E-09  0.1343541E+01
  0.2400000E+00  0.5966496E+05 -0.1569903E+01  0.7905757E-02  0.1611264E+01  0.1437787E+05 -0.3023441E+01  0.6534816E-02 -0.8921310E-01  0.2641569E+06  0.1571681E+01  0.1911435E-08  0.1760353E+01
  0.2800000E+00  0.7092301E+05 -0.1569440E+01  0.5773216E-02 -0.2614907E+01  0.1929004E+05 -0.3017564E+01  0.1038874E-01  0.1928203E+01  0.3130459E+06  0.1572141E+01  0.7136375E-09  0.1216799E+01
  0.3200000E+00  0.8283711E+05 -0.1568773E+01  0.1138311E-01  0.3039371E+01  0.2482157E+05 -0.3009927E+01  0.2984237E-01 -0.3916987E+00  0.3646700E+06  0.1572803E+01  0.7365716E-09 -0.9786842E+00
  0.3600000E+00  0.9557030E+05 -0.1567826E+01  0.1241372E-01  0.1039138E+01  0.3086900E+05 -0.3001930E+01  0.2226184E-01  0.2710136E+01  0.4196219E+06  0.1573740E+01  0.3934296E-08  0.1518991E+01
  0.4000000E+00  0.1094646E+06 -0.1566444E+01  0.7392987E-02 -0.2085954E+01  0.3742969E+05 -0.2991040E+01  0.4793987E-01  0.2498394E+01  0.4786235E+06  0.1575111E+01  0.3142169E-09 -0.8345389E+00
  0.4400000E+00  0.1245396E+06 -0.1564472E+01  0.1566947E-01  0.1749833E+01  0.4426614E+05 -0.2980284E+01  0.2499606E-01 -0.1827712E+01  0.5422213E+06  0.1577066E+01  0.1292747E-08 -0.2115077E+01
  0.4800000E+00  0.1410841E+06 -0.1561570E+01  0.1348026E-01  0.1150349E+01  0.5129641E+05 -0.2965698E+01  0.5525037E-01  0.2235164E+01  0.6120532E+06  0.1579940E+01  0.7568395E-08 -0.1551568E+01
  0.5200000E+00  0.1594953E+06 -0.1557481E+01  0.3046961E-01 -0.1786104E+01  0.5836777E+05 -0.2951624E+01  0.7801930E-01 -0.2674884E+01  0.6881253E+06  0.1583992E+01  0.6149454E-08 -0.1795112E+01
  0.5600000E+00  0.1797527E+06 -0.1551664E+01  0.1430536E-01 -0.2842770E+01  0.6506954E+05 -0.2934714E+01  0.6136179E-01  0.7920800E+00  0.7709908E+06  0.1589762E+01  0.4716639E-08  0.1543026E+01
  0.6000000E+00  0.2021180E+06 -0.1543668E+01  0.5444809E-02  0.1722181E+01  0.7167716E+05 -0.2917579E+01  0.8277596E-01 -0.1320676E+01  0.8619942E+06  0.1597684E+01  0.3444104E-08  0.2102520E+01
  0.6400000E+00  0.2260742E+06 -0.1533091E+01  0.3931614E-01 -0.1026398E+00  0.7718116E+05 -0.2900423E+01  0.2196322E-01 -0.2700317E+01  0.9588118E+06  0.1608144E+01  0.1575980E-08  0.2310475E+01
  0.6800000E+00  0.2521917E+06 -0.1519225E+01  0.1521206E-01 -0.7602605E+00  0.8225459E+05 -0.2881168E+01  0.8661293E-01  0.1267097E+01  0.1060971E+07  0.1621915E+01  0.1677030E-07  0.1401653E+01
  0.7200000E+00  0.2793809E+06 -0.1502057E+01  0.6617365E-01 -0.1956133E+01  0.8645564E+05 -0.2866116E+01  0.7307769E-01 -0.1955597E+01  0.1165822E+07  0.1638948E+01  0.1527882E-08  0.8663023E+00
  0.7600000E+00  0.3076392E+06 -0.1480879E+01  0.3729094E-01 -0.1684023E+01  0.8965798E+05 -0.2849767E+01  0.1193390E+00  0.1370247E+01  0.1274014E+07  0.1659929E+01  0.1349015E-07  0.1694081E+01
  0.8000000E+00  0.3367129E+06 -0.1455432E+01  0.3173435E-01  0.2359148E+01  0.9239681E+05 -0.2834152E+01  0.1188895E+00 -0.1032391E+01  0.1383804E+07  0.1685109E+01  0.5597628E-08  0.2846152E+01
  0.8400000E+00  0.3654871E+06 -0.1425931E+01  0.1643187E-01  0.1398854E+01  0.9395874E+05 -0.2820718E+01  0.2395350E+00 -0.6070716E+00  0.1487286E+07  0.1714366E+01  0.2325576E-07  0.1437749E+01
  0.8800000E+00  0.3939152E+06 -0.1391817E+01  0.3616198E-01 -0.1922307E+01  0.9469634E+05 -0.2806956E+01  0.3563463E-01 -0.2491497E+01  0.1586484E+07  0.1748226E+01  0.1353328E-08  0.0000000E+00
  0.9200000E+00  0.4213955E+06 -0.1353070E+01  0.3402387E-01  0.9151862E+00  0.9497178E+05 -0.2793824E+01  0.1425032E+00  0.2865146E+01  0.1679045E+07  0.1786682E+01  0.1183121E-07  0.1391493E+01
  0.9600000E+00  0.4456870E+06 -0.1309653E+01  0.4910221E-01  0.1730523E+01  0.9429980E+05 -0.2782540E+01  0.1212006E+00 -0.9309966E+00  0.1756178E+07  0.1829717E+01  0.4064552E-07 -0.1341448E+01
  0.1000000E+01  0.4671807E+06 -0.1261877E+01  0.4493087E-01  0.1485963E+01  0.9273895E+05 -0.2770919E+01  0.8959018E-01 -0.5518698E+00  0.1822130E+07  0.1876869E+01  0.1512863E-07 -0.1323485E+01
  0.1040000E+01  0.4848711E+06 -0.1210794E+01  0.5537874E-01 -0.2332454E+01  0.9072398E+05 -0.2759486E+01  0.1642817E+00  0.1924134E+01  0.1867232E+07  0.1927470E+01  0.1581453E-07  0.1865228E+01
  0.1080000E+01  0.4980878E+06 -0.1156637E+01  0.2815380E-01 -0.3539398E+00  0.8839751E+05 -0.2748911E+01  0.5188911E-01  0.3778307E+00  0.1893858E+07  0.1981024E+01  0.1251668E-07  0.1402590E+01
  0.1120000E+01  0.5050147E+06 -0.1099774E+01  0.1081943E+00 -0.1872428E+01  0.8505049E+05 -0.2740058E+01  0.1542778E+00  0.9218999E+00  0.1893285E+07  0.2037285E+01  0.8661801E-08 -0.9380476E+00
  0.1160000E+01  0.5063886E+06 -0.1041277E+01  0.2392249E-02  0.7687659E+00  0.8140721E+05 -0.2731739E+01  0.2626238E+00  0.1455098E+01  0.1872538E+07  0.2094932E+01  0.3394061E-07  0.1467715E+01
  0.1200000E+01  0.5020065E+06 -0.9828638E+00  0.1076702E-01 -0.2397355E+01  0.7759447E+05 -0.2724424E+01  0.1817187E+00  0.2398623E+01  0.1827793E+07  0.2152606E+01  0.1775334E-07 -0.2679411E+01
  0.1240000E+01  0.4918332E+06 -0.9246986E+00  0.8308605E-02  0.1527395E+01  0.7353652E+05 -0.2716175E+01  0.1232613E+00  0.8317593E-01  0.1763591E+07  0.2209809E+01  0.9834555E-08 -0.1067435E+01
  0.1280000E+01  0.4751481E+06 -0.8673663E+00  0.1211845E+00  0.1333559E+01  0.6907755E+05 -0.2710803E+01  0.1574070E+00  0.2208525E+01  0.1674684E+07  0.2266156E+01  0.1765372E-07  0.8507257E+00
  0.1320000E+01  0.4544327E+06 -0.8119664E+00  0.5546533E-01  0.1735137E+01  0.6429727E+05 -0.2705037E+01  0.2197306E+00  0.2211953E+01  0.1576202E+07  0.2320290E+01  0.2090944E-07  0.1340232E+00
  0.1360000E+01  0.4288558E+06 -0.7592822E+00  0.7797994E-01  0.1533817E+01  0.5961905E+05 -0.2699533E+01  0.6662212E-01  0.2240485E+01  0.1459734E+07  0.2371862E+01  0.6913308E-08 -0.2612003E+01
  0.1400000E+01  0.4006990E+06 -0.7095520E+00  0.1426606E-01 -0.7905506E+00  0.5499570E+05 -0.2695075E+01  0.8814180E-01 -0.1150590E+01  0.1339119E+07  0.2420092E+01  0.4191052E-08 -0.4605420E+00
  0.1440000E+01  0.3694500E+06 -0.6624495E+00  0.8178965E-02  0.2091418E+01  0.5053675E+05 -0.2692316E+01  0.1804620E+00  0.1263174E+01  0.1211970E+07  0.2465490E+01  0.1964557E-07  0.4018281E+00
  0.1480000E+01  0.3359192E+06 -0.6187118E+00  0.1488527E-01  0.1577427E+01  0.4601646E+05 -0.2689842E+01  0.1294840E+00  0.1573102E+01  0.1078865E+07  0.2507308E+01  0.1479168E-07  0.1441560E+01
  0.1520000E+01  0.3018135E+06 -0.5774571E+00  0.2633632E-01 -0.1713226E+01  0.4157373E+05 -0.2691171E+01  0.1315367E+00  0.2109108E+01  0.9511210E+06  0.2546356E+01  0.7516808E-08 -0.2025786E+01
  0.1560000E+01  0.2668058E+06 -0.5396693E+00  0.4589298E-01 -0.1908766E+01  0.3741786E+05 -0.2690420E+01  0.2246787E+00 -0.1564739E+01  0.8225408E+06  0.2581508E+01  0.2639204E-07 -0.1080515E+01
  0.1600000E+01  0.2321143E+06 -0.5049474E+00  0.7393745E-01 -0.1767630E+01  0.3353180E+05 -0.2693131E+01  0.1915010E-01  0.2895020E+01  0.7002344E+06  0.2613054E+01  0.1160013E-07  0.5490252E+00
  0.1640000E+01  0.1978060E+06 -0.4723772E+00  0.4264754E-01  0.1524849E+01  0.2982525E+05 -0.2694612E+01  0.8052886E-01  0.1378642E+01  0.5845016E+06  0.2641767E+01  0.5759913E-08  0.2896614E+01
  0.1680000E+01  0.1638599E+06 -0.4419020E+00  0.5655321E-01 -0.1514984E+01  0.2644943E+05 -0.2700157E+01  0.1359006E+00  0.1613370E+01  0.4733440E+06  0.2667078E+01  0.1204716E-07  0.9678405E-01
  0.1720000E+01  0.1308359E+06 -0.4130216E+00  0.9773534E-01  0.1634968E+01  0.2326363E+05 -0.2705488E+01  0.2999571E+00 -0.1576192E+01  0.3692431E+06  0.2689085E+01  0.1951476E-08  0.1267911E+01
  0.1760000E+01  0.9927891E+05 -0.3840801E+00  0.2923984E-01  0.1365443E+01  0.2024498E+05 -0.2715426E+01  0.8052185E-01  0.1544571E+01  0.2748120E+06  0.2708654E+01  0.4617156E-08  0.2553590E+01
  0.1800000E+01  0.6889208E+05 -0.3547518E+00  0.1314223E-01 -0.1749975E+01  0.1769290E+05 -0.2717144E+01  0.2316545E+00 -0.1608472E+01  0.1866058E+06  0.2720971E+01  0.1897534E-07  0.1681454E+01
  0.1840000E+01  0.4014594E+05 -0.3140974E+00  0.7132204E-02 -0.1508177E+01  0.1538520E+05 -0.2719650E+01  0.6875691E-01 -0.1457547E+01  0.1073042E+06  0.2724714E+01  0.2483769E-07  0.1683524E+01
  0.1880000E+01  0.1309175E+05 -0.2087508E+00  0.5061374E-01 -0.1311340E+01  0.1322662E+05 -0.2731603E+01  0.1247626E+00  0.1557052E+01  0.3617382E+05  0.2667767E+01  0.1261644E-07  0.2414950E+01
  0.1920000E+01  0.1262487E+05  0.2689471E+01  0.5441321E-01 -0.1526334E+01  0.1129468E+05 -0.2747209E+01  0.1270163E+00 -0.1579885E+01  0.2811794E+05 -0.2069157E+00  0.4610414E-07 -0.1558171E+01
  0.1960000E+01  0.3625068E+05  0.2792949E+01  0.1287069E-01  0.1833747E+01  0.9524336E+04 -0.2776186E+01  0.6422858E-01  0.1748538E+01  0.8394698E+05 -0.2876772E+00  0.1660337E-07 -0.3284023E+00
  0.2000000E+01  0.5805210E+05  0.2825660E+01  0.2253731E-01  0.1573505E+01  0.8101164E+04 -0.2787129E+01  0.2352668E-01  0.3052081E+01  0.1325535E+06 -0.2936851E+00  0.1164153E-07  0.2498091E+01
  0.2040000E+01  0.7804239E+05  0.2848364E+01  0.3694344E-01  0.1401472E+01  0.6731653E+04 -0.2819693E+01  0.4431995E-01  0.1222507E+01  0.1747375E+06 -0.2884795E+00  0.2009944E-07  0.1483807E+01
  0.2080000E+01  0.9602139E+05  0.2865480E+01  0.3192502E-01 -0.1621960E+01  0.5810342E+04 -0.2776140E+01  0.6685360E-01  0.1693443E+01  0.2091500E+06 -0.2855272E+00  0.3278285E-08  0.2853537E+01
  0.2120000E+01  0.1122014E+06  0.2880911E+01  0.7725260E-02 -0.3189398E+00  0.4830417E+04 -0.2687711E+01  0.6869739E-01 -0.2400021E+01  0.2378772E+06 -0.2805081E+00  0.1621478E-08  0.3671738E+00
  0.2160000E+01  0.1266242E+06  0.2896046E+01  0.2531750E-01 -0.3125771E+01  0.2756146E+04 -0.2720140E+01  0.3072004E-01  0.1512062E+01  0.2617406E+06 -0.2723822E+00  0.1802831E-07 -0.1319553E+01
  0.2200000E+01  0.1387354E+06  0.2910486E+01  0.1477617E-01 -0.1660241E+01  0.3699319E+04 -0.3045656E+01  0.7453471E-01 -0.1574553E+01  0.2785189E+06 -0.2662188E+00  0.2334593E-07  0.1853805E+01
  0.2240000E+01  0.1487968E+06  0.2924178E+01  0.3720193E-01 -0.9057601E+00  0.3642344E+04 -0.2809878E+01  0.4119097E-01  0.1717308E+01  0.2894696E+06 -0.2613558E+00  0.2310103E-07 -0.1568639E+00
  0.2280000E+01  0.1567634E+06  0.2936690E+01  0.2002261E-01  0.9290289E+00  0.2938921E+04 -0.2817380E+01  0.5536457E-01  0.4173514E+00  0.2950958E+06 -0.2600987E+00  0.2207723E-07 -0.1192738E+01
  0.2320000E+01  0.1628505E+06  0.2951245E+01  0.7096106E-02 -0.2215561E+01  0.2275439E+04 -0.2909557E+01  0.2351771E-01 -0.3110424E+01  0.2975190E+06 -0.2545770E+00  0.1980141E-07  0.2100881E+01
  0.2360000E+01  0.1669684E+06  0.2967389E+01  0.4042503E-01 -0.1952757E+01  0.1836383E+04 -0.2955471E+01  0.1435534E-01  0.1766656E+01  0.2958172E+06 -0.2472410E+00  0.1396025E-07 -0.8178352E+00
  0.2400000E+01  0.1689271E+06  0.2983795E+01  0.1302286E-01  0.1987578E+01  0.1499448E+04 -0.3055400E+01  0.4004103E-01 -0.2180595E+01  0.2885251E+06 -0.2459020E+00  0.3571283E-07  0.3070684E+01
  0.2440000E+01  0.1688104E+06  0.3004018E+01  0.1365195E-01 -0.7494054E+00  0.1238136E+04 -0.3094384E+01  0.2953012E-01  0.2129915E+01  0.2768907E+06 -0.2397848E+00  0.5794532E-08 -0.2269072E+01
  0.2480000E+01  0.1664118E+06  0.3031333E+01  0.9883648E-02 -0.1104862E+01  0.9903820E+03 -0.3100040E+01  0.3553485E-01  0.1816270E+01  0.2596392E+06 -0.2243295E+00  0.3083777E-07  0.8220073E-01
  0.2520000E+01  0.1613394E+06  0.3064915E+01  0.2268971E-01  0.1516634E+01  0.7946307E+03 -0.3091820E+01  0.2496362E-01 -0.2858668E+01  0.2369722E+06 -0.2107087E+00  0.1171757E-07 -0.2836337E+01
  0.2560000E+01  0.1531390E+06  0.3109998E+01  0.1702248E-01 -0.1370918E+01  0.6302910E+03 -0.3062156E+01  0.5627555E-02  0.2435632E+01  0.2071673E+06 -0.1986348E+00  0.1789249E-07  0.2921865E+01
  0.2600000E+01  0.1405708E+06 -0.3108020E+01  0.4778846E-02 -0.2741889E+01  0.4913090E+03 -0.3017952E+01  0.2309756E-01 -0.2254671E+01  0.1676646E+06 -0.1986775E+00  0.1097411E-07 -0.2625736E+01
  0.2640000E+01  0.1205209E+06 -0.2999583E+01  0.6550563E-02  0.8051649E+00  0.3455085E+03 -0.3062944E+01  0.1322007E-01  0.2751058E+01  0.1145946E+06 -0.2456025E+00  0.1401826E-08 -0.3058451E+01
  0.2680000E+01  0.8246613E+05 -0.2785731E+01  0.2026574E-02 -0.7977104E+00  0.2102508E+03 -0.3106703E+01  0.4706909E-02 -0.8199865E+00  0.5050535E+05 -0.1004229E+01  0.1343828E-08  0.2833540E+01
  0.2720000E+01  0.1063898E+05  0.1763452E+01  0.7835878E-02 -0.2266314E+01  0.8907178E+02 -0.3136946E+01  0.1181659E-01 -0.1763128E+01  0.1859877E+06 -0.1917390E+01  0.7744163E-08  0.4097340E+00
  0.2760000E+01  0.1125146E+06  0.1865886E+01  0.1736435E-01  0.1681690E+01  0.2054618E+02 -0.4552019E-01  0.1236133E-01  0.2398740E+01  0.3147768E+06 -0.1297044E+01  0.6064658E-08 -0.2266149E+01
  0.2800000E+01  0.1328910E+06  0.2290832E+01  0.7703690E-02  0.1380980E+00  0.1246301E+03 -0.4353312E-01  0.5312839E-02  0.1271649E+01  0.2877928E+06 -0.9181016E+00  0.1736582E-07  0.2575796E+00
  0.2840000E+01  0.1254212E+06  0.2482340E+01  0.3775807E-02 -0.2919527E+01  0.2131219E+03 -0.7129214E-01  0.1577084E-01  0.1613010E+01  0.2462828E+06 -0.7533795E+00  0.3725745E-08  0.1555173E+01
  0.2880000E+01  0.1134784E+06  0.2586435E+01  0.3458407E-02  0.1607204E+01  0.2822791E+03 -0.1403944E+00  0.7650711E-03  0.1969699E+01  0.2120908E+06 -0.6615846E+00  0.4296735E-08  0.9489720E+00
  0.2920000E+01  0.9865091E+05  0.2642699E+01  0.4745392E-02  0.1026172E+01  0.3751992E+03 -0.1759440E+00  0.1140912E-01  0.8457332E+00  0.1740869E+06 -0.6318895E+00  0.1629825E-07 -0.1574368E+01
  0.2960000E+01  0.8427612E+05  0.2679890E+01  0.9297713E-03 -0.4590605E+00  0.4766873E+03 -0.2513185E+00  0.2488669E-02 -0.6248810E+00  0.1426635E+06 -0.6177701E+00  0.1667830E-08  0.5104883E+00
  0.3000000E+01  0.7018252E+05  0.2704385E+01  0.7554398E-02 -0.3742707E+00  0.6121656E+03 -0.3355564E+00  0.8797782E-02 -0.2634399E+00  0.1145524E+06 -0.6219703E+00  0.3231574E-08 -0.2337089E+01
  0.3040000E+01  0.5653539E+05  0.2722063E+01  0.1035433E-02 -0.2834697E+01  0.7108015E+03 -0.3788558E+00  0.1186687E-01  0.2510999E+01  0.8939005E+05 -0.6347811E+00  0.6626029E-08  0.1943962E+01
  0.3080000E+01  0.4324495E+05  0.2732760E+01  0.4142074E-02 -0.2298203E+01  0.7910583E+03 -0.3996305E+00  0.9280120E-02  0.2418801E+01  0.6650239E+05 -0.6581098E+00  0.5049074E-08  0.2409206E+01
  0.3120000E+01  0.3068359E+05  0.2739539E+01  0.8741997E-02  0.2045757E+01  0.8936453E+03 -0.4355215E+00  0.7564759E-02 -0.2428637E+01  0.4612975E+05 -0.6860491E+00  0.5976341E-08 -0.1685336E+01
  0.3160000E+01  0.1903681E+05  0.2743426E+01  0.2940156E-02 -0.1078931E+01  0.9991649E+03 -0.4401728E+00  0.4454121E-02  0.4084658E+00  0.2816385E+05 -0.7208667E+00  0.1004957E-07  0.6730449E+00
  0.3200000E+01  0.8404286E+04  0.2745612E+01  0.2294320E-02 -0.2720899E+01  0.1142722E+04 -0.4099889E+00  0.3739833E-02 -0.2240529E+01  0.1229680E+05 -0.7586536E+00  0.5342753E-09  0.5123895E+00
  0.3240000E+01  0.1109401E+04 -0.3948712E+00  0.3906565E-02  0.2612394E+01  0.1400049E+04 -0.3239611E+00  0.2220620E-01 -0.1820496E+01  0.1615800E+04  0.2342191E+01  0.3843055E-08 -0.2650894E-01
  0.3280000E+01  0.9353315E+04 -0.3883266E+00  0.1116759E-02  0.1243915E+01  0.1654452E+04 -0.9174523E-01  0.1694000E-01 -0.6425434E+00  0.1343151E+05  0.2313489E+01  0.1723788E-07 -0.3110353E+01
  0.3320000E+01  0.1612415E+05 -0.3803481E+00  0.1793006E-02 -0.2038726E+01  0.1710481E+04  0.2067651E+00  0.3402446E-01  0.3024547E+01  0.2273498E+05  0.2280060E+01  0.1106497E-07  0.3110024E+01
  0.3360000E+01  0.2126413E+05 -0.3885272E+00  0.6430640E-02 -0.3107764E+00  0.1346885E+04  0.3659093E+00  0.1535038E-01  0.6262779E+00  0.3031271E+05  0.2191025E+01  0.7283695E-08 -0.5602935E+00
  0.3400000E+01  0.2462080E+05 -0.4029661E+00  0.3877460E-02 -0.1614098E+01  0.1137879E+04  0.4181405E+00  0.2247716E-01  0.5434585E+00  0.3625288E+05  0.2078569E+01  0.6559735E-08  0.1111472E+00
  0.3440000E+01  0.2603443E+05 -0.4290541E+00  0.3967003E-02 -0.3468404E+00  0.9967709E+03  0.4237130E+00  0.1239021E-01  0.1922736E+01  0.4109538E+05  0.1934384E+01  0.5680543E-08  0.7998899E+00
  0.3480000E+01  0.2540124E+05 -0.4839595E+00  0.2346805E-02  0.1743962E+01  0.8629905E+03  0.3919837E+00  0.2710453E-02  0.3069779E+00  0.4640454E+05  0.1751067E+01  0.1170774E-08  0.2577723E+01
  0.3520000E+01  0.2269820E+05 -0.6071737E+00  0.6804939E-02  0.6887271E+00  0.6650612E+03  0.3380040E+00  0.9117718E-02  0.1319874E+01  0.5382596E+05  0.1540452E+01  0.7123723E-08 -0.1176634E+01
  0.3560000E+01  0.1965460E+05 -0.9047352E+00  0.6917722E-02  0.1969787E+01  0.4130522E+03  0.2385096E+00  0.6145392E-02  0.1265084E+01  0.6692995E+05  0.1368779E+01  0.4337935E-08 -0.1773455E+01
  0.3600000E+01  0.2126838E+05 -0.1422763E+01  0.2663219E-02 -0.2689476E+01  0.3076974E+03  0.1686997E+00  0.2008859E-01  0.2498115E+01  0.8690472E+05  0.1270009E+01  0.3528772E-08 -0.6154557E+00
  0.3640000E+01  0.3308150E+05 -0.1750964E+01  0.1834043E-02 -0.2100069E+01  0.2010386E+03  0.1037233E+00  0.8533874E-02  0.4654003E+00  0.1137672E+06  0.1279832E+01  0.4555679E-08 -0.2088754E+01
  0.3680000E+01  0.5083638E+05 -0.1723159E+01  0.1784842E-02  0.7100461E+00  0.8805725E+02  0.4371997E-01  0.2447520E-02  0.1068879E+01  0.1406988E+06  0.1412118E+01  0.9258658E-08  0.5125179E+00
  0.3720000E+01  0.6392643E+05 -0.1519999E+01  0.3937219E-02 -0.5235325E+00  0.2644275E+02  0.3128446E+01  0.4012369E-02 -0.9643649E+00  0.1516040E+06  0.1617537E+01  0.8498767E-08 -0.1581070E+01
  0.3760000E+01  0.6572517E+05 -0.1304364E+01  0.1334149E-02  0.1993194E+01  0.1516665E+03  0.3066626E+01  0.3753754E-02 -0.1793661E+01  0.1416878E+06  0.1803676E+01  0.3603950E-08 -0.2778332E+01
  0.3800000E+01  0.5979226E+05 -0.1148285E+01  0.3063597E-03 -0.3060568E+01  0.2934991E+03  0.2992819E+01  0.8415241E-03 -0.1919652E+01  0.1219331E+06  0.1925771E+01  0.1294969E-07  0.3343215E+00
  0.3840000E+01  0.5081575E+05 -0.1047044E+01  0.5831952E-03 -0.1200159E+01  0.4303446E+03 -0.3123720E+00  0.8065683E-03 -0.2242538E+01  0.1000944E+06  0.1996183E+01  0.1971556E-08 -0.2113747E+01
  0.3880000E+01  0.4128812E+05 -0.9930317E+00  0.1636606E-02  0.1559725E+01  0.5557625E+03 -0.3863380E+00  0.4931847E-03 -0.3736838E+00  0.7931461E+05  0.2010595E+01  0.2136506E-08  0.4209906E+00
  0.3920000E+01  0.3207955E+05 -0.9662428E+00  0.1258440E-02  0.3068017E+01  0.6834741E+03 -0.4333026E+00  0.2505900E-02 -0.9557527E+00  0.6094299E+05  0.2000003E+01  0.1731128E-08  0.2851746E+01
  0.3960000E+01  0.2343325E+05 -0.9581240E+00  0.6021613E-03  0.8515193E+00  0.8081287E+03 -0.4412704E+00  0.1881542E-02 -0.9581551E+00  0.4449974E+05  0.1974162E+01  0.6998972E-08 -0.7618731E+00
  0.4000000E+01  0.1556592E+05 -0.9681728E+00  0.9156920E-03 -0.4792513E+00  0.1267608E+04 -0.3917429E+00  0.7542241E-02 -0.1687369E+01  0.3054487E+05  0.1930135E+01  0.3924838E-08  0.8983715E+00
  0.4040000E+01  0.8319549E+04 -0.9888794E+00  0.1242684E-02 -0.2782642E+01  0.1410130E+04 -0.3025104E+00  0.3311011E-03 -0.1854307E-01  0.1661421E+05  0.1881413E+01  0.2620355E-08  0.2242068E+01
  0.4080000E+01  0.1946499E+04 -0.1027862E+01  0.2008086E-02  0.2737449E+01  0.1460613E+04 -0.1656242E+00  0.1958503E-02  0.5718229E+00  0.3999052E+04  0.1817955E+01  0.8987301E-08  0.1041207E+01
  0.4120000E+01  0.3534992E+04  0.2047685E+01  0.2315339E-02  0.7693785E+00  0.1391889E+04 -0.6984046E-02  0.1035331E-01 -0.3075284E+01  0.7605372E+04 -0.1404933E+01  0.1053579E-07 -0.1737307E+01
  0.4160000E+01  0.8246909E+04  0.1962600E+01  0.5144387E-02 -0.3131397E+01  0.1197389E+04  0.1409995E+00  0.1554613E-01  0.4594330E-01  0.1871886E+05 -0.1487627E+01  0.4353528E-08 -0.2088284E+01
  0.4200000E+01  0.1239832E+05  0.1858407E+01  0.6415464E-02  0.3095643E+01  0.9479760E+03  0.2486910E+00  0.1415422E-01  0.1776384E+00  0.2970010E+05 -0.1567824E+01  0.6714349E-08 -0.1492695E+01
  0.4240000E+01  0.1633392E+05  0.1738806E+01  0.1795876E-02  0.2706923E+01  0.7056959E+03  0.3089823E+00  0.2577086E-02 -0.8132084E+00  0.4089120E+05 -0.1641207E+01  0.8542259E-08 -0.2428532E+01
  0.4280000E+01  0.2053881E+05  0.1615084E+01  0.7899510E-03 -0.1645716E+01  0.4983605E+03  0.3262875E+00  0.7549606E-02 -0.3080297E+01  0.5262078E+05 -0.1702131E+01  0.3406516E-08  0.2563068E+01
  0.4320000E+01  0.2554622E+05  0.1507740E+01  0.2261517E-02 -0.5364599E+00  0.3323427E+03  0.3052777E+00  0.5936279E-02 -0.8123135E+00  0.6513491E+05 -0.1742131E+01  0.1587577E-08  0.3754000E+00
  0.4360000E+01  0.3194529E+05  0.1445215E+01  0.6686877E-03  0.4421198E+00  0.2688506E+03  0.2281533E+00  0.2820420E-02  0.2423693E+01  0.8047160E+05 -0.1747523E+01  0.8253194E-08 -0.1178175E+01
  0.4400000E+01  0.3831085E+05  0.1448050E+01  0.3036042E-03  0.1930302E+01  0.1498139E+03  0.1483604E+00  0.3908911E-03 -0.2122955E+01  0.9229835E+05 -0.1709229E+01  0.8509523E-08 -0.1622121E+01
  0.4440000E+01  0.4317083E+05  0.1507428E+01  0.2632003E-03 -0.3630115E+00  0.5621299E+02  0.6162311E-01  0.3518535E-02 -0.2597847E+01  0.9944328E+05 -0.1635154E+01  0.9042490E-08 -0.1333624E+01
  0.4480000E+01  0.4470070E+05  0.1596126E+01  0.1602191E-02 -0.4761869E-02  0.1964761E+02  0.3117718E+01  0.8600288E-03  0.2384302E+01  0.9888951E+05 -0.1546963E+01  0.1942122E-08  0.2088084E+01
  0.4520000E+01  0.4261057E+05  0.1682962E+01  0.3480375E-03 -0.1116952E+01  0.8252351E+02  0.3035736E+01  0.5107826E-03 -0.7171161E+00  0.9146543E+05 -0.1471122E+01  0.6834445E-08 -0.1088103E+01
  0.4560000E+01  0.3782291E+05  0.1749849E+01  0.5595761E-03  0.2074088E+01  0.1360313E+03  0.2967798E+01  0.2013525E-02 -0.1851250E+01  0.7964109E+05 -0.1420081E+01  0.1831693E-08  0.1877473E+01
  0.4600000E+01  0.3156717E+05  0.1791851E+01  0.5083406E-03 -0.1582053E+01  0.1813297E+03  0.2926190E+01  0.2257978E-02  0.3076967E+01  0.6581295E+05 -0.1394446E+01  0.1675178E-08 -0.1710236E+01
  0.4640000E+01  0.2471382E+05  0.1811198E+01  0.7856337E-03  0.3045548E+01  0.2160894E+03  0.2919946E+01  0.1663296E-02  0.4472192E+00  0.5138909E+05 -0.1389632E+01  0.4108855E-08  0.2420097E+01
  0.4680000E+01  0.1779485E+05  0.1811340E+01  0.4647049E-03  0.6829137E+00  0.2348452E+03  0.2952551E+01  0.3883100E-02 -0.1474136E+01  0.3708863E+05 -0.1400857E+01  0.1429221E-08  0.8610657E+00
  0.4720000E+01  0.1114226E+05  0.1790638E+01  0.3117162E-03 -0.1234049E+01  0.2359830E+03  0.2996159E+01  0.2227428E-02  0.3065845E+01  0.2338942E+05 -0.1431374E+01  0.4173128E-08 -0.5260664E+00
  0.4760000E+01  0.4914137E+04  0.1752654E+01  0.9014255E-03  0.2456608E+01  0.2225689E+03  0.3047533E+01  0.9023417E-02  0.2903427E+01  0.1044389E+05 -0.1475355E+01  0.1277920E-08 -0.2616797E+01
  0.4800000E+01  0.8976998E+03 -0.1436488E+01  0.1147663E-02 -0.2935723E+01  0.1929006E+03  0.3118870E+01  0.6849075E-02 -0.2927425E+00  0.1935536E+04  0.1619179E+01  0.4729529E-08  0.2905569E+01
  0.4840000E+01  0.6343375E+04 -0.1489472E+01  0.3574689E-03  0.1230314E+00  0.1513835E+03 -0.3080916E+01  0.3217542E-02 -0.3097317E+01  0.1386341E+05  0.1573342E+01  0.1510318E-08  0.2008588E+01
  0.4880000E+01  0.1156590E+05 -0.1543633E+01  0.9748026E-04  0.5337082E+00  0.1920270E+03 -0.3020485E+01  0.8009435E-02 -0.5500966E-01  0.2578294E+05  0.1531937E+01  0.5732790E-09  0.4182243E+00
  0.4920000E+01  0.1651967E+05 -0.1591566E+01  0.3738415E-03  0.2285787E+01  0.1346867E+03 -0.2964547E+01  0.1934500E-02 -0.3014648E+01  0.3698265E+05  0.1500372E+01  0.2449049E-08  0.1630250E+01
  0.4960000E+01  0.2124513E+05 -0.1628014E+01  0.1372984E-02  0.1900735E+00  0.8448693E+02 -0.2924788E+01  0.4062263E-02  0.2478925E+01  0.4745836E+05  0.1481211E+01  0.2563131E-08  0.9977534E+00
  0.5000000E+01  0.2563716E+05 -0.1644140E+01  0.1399698E-02 -0.2726412E+01  0.4546672E+02 -0.2908144E+01  0.2982508E-02 -0.4543017E+00  0.5673386E+05  0.1481105E+01  0.9943576E-08 -0.1669373E+01
  0.5040000E+01  0.2920541E+05 -0.1633919E+01  0.3629229E-03  0.8114146E+00  0.1906600E+02 -0.2919864E+01  0.2338024E-02  0.2007568E+00  0.6368587E+05  0.1502790E+01  0.1062190E-08 -0.1735945E+01
  0.5080000E+01  0.3127419E+05 -0.1604119E+01  0.1352020E-02  0.2684254E+01  0.4430338E+01 -0.2964674E+01  0.7463920E-03  0.1124530E+01  0.6714743E+05  0.1537570E+01  0.1047738E-07  0.1570796E+01
  0.5120000E+01  0.3139012E+05 -0.1565053E+01  0.3425922E-03  0.3030013E+01  0.1155790E+00 -0.1982773E+00  0.7327723E-03 -0.2307611E+01  0.6648593E+05  0.1576188E+01  0.9015849E-08  0.1795418E+01
  0.5160000E+01  0.2952375E+05 -0.1528224E+01  0.1157212E-03  0.2992703E+01  0.3543931E+01 -0.2887658E+01  0.2625712E-03  0.2188961E+01  0.6186937E+05  0.1608811E+01  0.1305702E-07 -0.1443400E+01
  0.5200000E+01  0.2606582E+05 -0.1501429E+01  0.6229121E-03 -0.2093361E+01  0.1349795E+02 -0.2972794E+01  0.6691388E-03  0.9156526E+00  0.5427399E+05  0.1629589E+01  0.4574118E-08 -0.1736991E+01
  0.5240000E+01  0.2153265E+05 -0.1487663E+01  0.5135253E-03 -0.3099795E+01  0.2815561E+02 -0.3033534E+01  0.1320489E-02 -0.2767075E+01  0.4472662E+05  0.1637420E+01  0.4415373E-08  0.1518040E+01
  0.5280000E+01  0.1638712E+05 -0.1486531E+01  0.5292863E-03  0.5994614E-01  0.4630968E+02 -0.3088070E+01  0.3922764E-02  0.2976434E+01  0.3405960E+05  0.1634104E+01  0.2985684E-08  0.8461778E+00
  0.5320000E+01  0.1097272E+05 -0.1495838E+01  0.1102474E-03 -0.2221218E+01  0.6689790E+02 -0.3129893E+01  0.1975182E-02 -0.2305788E+01  0.2286004E+05  0.1622555E+01  0.5436109E-08  0.1797595E+01
  0.5360000E+01  0.5524588E+04 -0.1512703E+01  0.6398814E-03  0.9403324E-01  0.8819475E+02  0.3132585E+01  0.7789746E-03  0.1097084E+01  0.1154242E+05  0.1605649E+01  0.1851928E-08 -0.2097739E+01
  0.5400000E+01  0.2088969E+03 -0.1534248E+01  0.5481537E-03  0.5228146E+00  0.1071750E+03  0.3135614E+01  0.1052030E-01 -0.3136467E+01  0.4374984E+03  0.1585789E+01  0.2146000E-08 -0.1931154E+01
  0.5440000E+01  0.4852085E+04  0.1584395E+01  0.1740895E-02  0.3119131E+01  0.1186065E+03 -0.3128006E+01  0.9150942E-02 -0.9648121E-03  0.1018064E+05 -0.1576142E+01  0.1249772E-08  0.1086318E+01
  0.5480000E+01  0.9564271E+04  0.1564343E+01  0.5436613E-03  0.3022024E+01  0.1192255E+03 -0.3114171E+01  0.5544613E-03 -0.2596921E+01  0.2009725E+05 -0.1592218E+01  0.7917098E-09 -0.2199593E+01
  0.5520000E+01  0.1377875E+05  0.1550483E+01  0.1046872E-02 -0.1187053E+00  0.1110968E+03 -0.3109011E+01  0.2772306E-02  0.3095071E+01  0.2894883E+05 -0.1601545E+01  0.1927017E-08 -0.2007423E+01
  0.5560000E+01  0.1730073E+05  0.1544175E+01  0.2792072E-03  0.3925578E+00  0.9470025E+02 -0.3110959E+01  0.3890397E-03  0.1789166E+01  0.3628609E+05 -0.1603557E+01  0.2220598E-08 -0.1233503E+01
  0.5600000E+01  0.1991321E+05  0.1545678E+01  0.1155908E-02  0.7928719E-01  0.7085468E+02 -0.3117894E+01  0.8931555E-03 -0.2241849E+01  0.4164026E+05 -0.1598637E+01  0.1501758E-08  0.1321117E+01
  0.5640000E+01  0.2145118E+05  0.1554227E+01  0.7874215E-03 -0.3228996E+00  0.3204027E+02 -0.3129179E+01  0.3171643E-03 -0.2320080E+00  0.4473950E+05 -0.1587939E+01  0.1721068E-08 -0.1243698E+01
  0.5680000E+01  0.2169322E+05  0.1568234E+01  0.3200540E-03 -0.2216681E+01  0.4560353E+01 -0.3141006E+01  0.6259711E-03  0.2623760E+01  0.4504977E+05 -0.1573317E+01  0.1013633E-08  0.6837093E+00
  0.5720000E+01  0.2064225E+05  0.1585622E+01  0.2410250E-03 -0.2530543E+01  0.2643348E+02 -0.9381281E-02  0.3447723E-03  0.1709208E+01  0.4269178E+05 -0.1556874E+01  0.9465190E-08 -0.1607703E+01
  0.5760000E+01  0.1837145E+05  0.1602694E+01  0.4962774E-04  0.1609239E+01  0.5913713E+02 -0.1979458E-01  0.4242762E-03  0.1034412E+00  0.3786850E+05 -0.1542102E+01  0.6025126E-08  0.1585288E+01
  0.5800000E+01  0.1509772E+05  0.1609490E+01  0.1707184E-03 -0.1581969E+01  0.9165337E+02 -0.2252748E-01  0.2544848E-02  0.2427178E+00  0.3106947E+05 -0.1537785E+01  0.7147939E-08 -0.1456542E+01
  0.5840000E+01  0.1123923E+05  0.1608254E+01  0.4788060E-03  0.2782268E+01  0.1211274E+03 -0.1988658E-01  0.2798010E-02 -0.3132198E+01  0.2312754E+05 -0.1540968E+01  0.4916288E-08 -0.1594478E+01
  0.5880000E+01  0.7071751E+04  0.1600798E+01  0.1934880E-03 -0.2546413E+01  0.1446668E+03 -0.1354780E-01  0.1547566E-02  0.3101516E+01  0.1456511E+05 -0.1549267E+01  0.1281891E-08  0.1525373E+01
  0.5920000E+01  0.2813441E+04  0.1589905E+01  0.5875455E-03  0.4338815E+00  0.1597780E+03 -0.5968725E-02  0.1353207E-02 -0.1065957E-01  0.5801516E+04 -0.1559739E+01  0.3089945E-08 -0.1514253E+01
  0.5960000E+01  0.1351475E+04 -0.1562910E+01  0.3711497E-03 -0.4406632E+00  0.1648494E+03  0.5428718E-03  0.4833608E-02  0.9268258E-02  0.2789028E+04  0.1572107E+01  0.2503606E-09  0.2521343E+01
  0.6000000E+01  0.5246194E+04 -0.1571985E+01  0.1611710E-03 -0.3141592E+01  0.1593270E+03  0.4539364E-02  0.5595009E-03 -0.3132751E+01  0.1082657E+05  0.1565071E+01  0.1934912E-08  0.8066716E+00
  0.6039999E+01  0.8683187E+04 -0.1577353E+01  0.7900621E-03  0.3259715E-01  0.1435737E+03  0.5855554E-02  0.2432796E-02 -0.2216815E+00  0.1790387E+05  0.1561745E+01  0.2268046E-08 -0.1725397E+01