VARIABLES="w (rad/s)"
"abs(F   1   1)" "angle(F   1   1)"
"abs(F   1   2)" "angle(F   1   2)"
"abs(F   1   3)" "angle(F   1   3)"
"abs(F   1   4)" "angle(F   1   4)"
"abs(F   1   5)" "angle(F   1   5)"
"abs(F   1   6)" "angle(F   1   6)"
Zone t="Diffraction force - beta =   0.000 deg",I=   525,F=POINT
  0.4000000E-01  0.2202607E+05 -0.1570787E+01  0.4535920E-01  0.2696451E-02  0.7683678E+06 -0.5595989E-04  0.3007552E+01  0.7560092E-13  0.9778165E+05  0.1570794E+01  0.2048506E-07 -0.7814120E-02
  0.8000000E-01  0.4452333E+05 -0.1570762E+01  0.2779479E-02  0.2992559E+01  0.7636064E+06 -0.2264899E-03  0.4410775E+01  0.3141366E+01  0.1964266E+06  0.1570829E+01  0.4663920E-08  0.9060693E-01
  0.1200000E+00  0.6717411E+05 -0.1570720E+01  0.4529790E-01  0.3005297E-01  0.7557821E+06 -0.5216083E-03  0.1640460E+01 -0.1232453E-02  0.2961227E+06  0.1570871E+01  0.1770386E-07 -0.2795037E-01
  0.1600000E+00  0.9023342E+05 -0.1570652E+01  0.2707783E-01  0.3113236E+01  0.7449328E+06 -0.9581554E-03  0.1142947E-01  0.9175909E+00  0.3973427E+06  0.1570940E+01  0.3635129E-07  0.2081781E-01
  0.2000000E+00  0.1139322E+06 -0.1570553E+01  0.3709726E-01  0.3101196E+01  0.7311064E+06 -0.1563201E-02  0.1546462E+01  0.2371149E-03  0.5007551E+06  0.1571039E+01  0.1773217E-07 -0.3033054E+01
  0.2400000E+00  0.1383453E+06 -0.1570411E+01  0.2526598E-01  0.2833693E+01  0.7143920E+06 -0.2372395E-02  0.8914405E+00 -0.3141102E+01  0.6070702E+06  0.1571181E+01  0.1942801E-07 -0.1541584E+00
  0.2800000E+00  0.1638799E+06 -0.1570210E+01  0.3243927E-01 -0.3027336E+01  0.6948401E+06 -0.3434448E-02  0.2191890E+01  0.3136916E+01  0.7172092E+06  0.1571383E+01  0.4728276E-07 -0.1231086E-01
  0.3200000E+00  0.1906859E+06 -0.1569918E+01  0.6652192E-01  0.2784457E-01  0.6725968E+06 -0.4844991E-02  0.1890782E+00 -0.2476764E-01  0.8322612E+06  0.1571676E+01  0.9066230E-08  0.2951044E+01
  0.3600000E+00  0.2190675E+06 -0.1569500E+01  0.1638202E+00  0.3084388E+01  0.6478597E+06 -0.6633035E-02  0.2232567E+01  0.3139757E+01  0.9533208E+06  0.1572091E+01  0.5295698E-08  0.9690752E+00
  0.4000000E+00  0.2495213E+06 -0.1568887E+01  0.1235251E-01 -0.2427402E+01  0.6207772E+06 -0.9043426E-02  0.1431321E+01  0.1792481E-01  0.1081649E+07  0.1572705E+01  0.5781456E-08  0.2447982E+01
  0.4400000E+00  0.2822262E+06 -0.1568005E+01  0.2386188E-01  0.2475852E+01  0.5917380E+06 -0.1201505E-01  0.7749712E+00 -0.4198787E-01  0.1218332E+07  0.1573587E+01  0.9330718E-08 -0.8273162E+00
  0.4800000E+00  0.3176160E+06 -0.1566698E+01  0.2597968E-01  0.5092111E+00  0.5610662E+06 -0.1599935E-01  0.2360062E+01  0.3122378E+01  0.1365456E+07  0.1574895E+01  0.6134284E-08 -0.1316612E+01
  0.5200000E+00  0.3561886E+06 -0.1564834E+01  0.3501783E-01 -0.9583032E+00  0.5291312E+06 -0.2083090E-01  0.3078796E+01 -0.3129122E+01  0.1523273E+07  0.1576758E+01  0.5262002E-08 -0.6401825E+00
  0.5600000E+00  0.3979445E+06 -0.1562154E+01  0.3559225E-01 -0.2999209E+01  0.4966545E+06 -0.2691467E-01  0.2158395E+00  0.2133646E+00  0.1692212E+07  0.1579437E+01  0.1432406E-07  0.1298218E+01
  0.6000000E+00  0.4430538E+06 -0.1558422E+01  0.4182467E-01  0.3000576E+01  0.4636327E+06 -0.3435013E-01  0.1974331E+01 -0.3832385E-01  0.1873022E+07  0.1583169E+01  0.1675784E-07 -0.3026716E+01
  0.6400000E+00  0.4907855E+06 -0.1553431E+01  0.1051824E-01 -0.1236246E+00  0.4313154E+06 -0.4275166E-01  0.1827514E+01 -0.3138819E+01  0.2062261E+07  0.1588157E+01  0.1112270E-07  0.3138897E+00
  0.6800000E+00  0.5413924E+06 -0.1546782E+01  0.3422428E-01 -0.2873100E+01  0.3993458E+06 -0.5306118E-01  0.2809125E+01  0.3217306E-01  0.2257922E+07  0.1594808E+01  0.1449595E-07  0.1964352E+01
  0.7200000E+00  0.5934067E+06 -0.1538453E+01  0.1075990E+00 -0.2543634E+01  0.3681932E+06 -0.6391327E-01  0.2092452E+01 -0.3115363E+01  0.2455596E+07  0.1603132E+01  0.1840549E-07 -0.2219357E+01
  0.7600000E+00  0.6464201E+06 -0.1528048E+01  0.8311847E-01 -0.2732208E+01  0.3382773E+06 -0.7632723E-01  0.1208441E+01  0.3050494E+01  0.2654102E+07  0.1613538E+01  0.5009838E-07  0.2146392E+01
  0.8000000E+00  0.6997796E+06 -0.1515381E+01  0.6440222E-01  0.2804365E+01  0.3091838E+06 -0.9055910E-01  0.1486258E+01 -0.5209313E-01  0.2849950E+07  0.1626209E+01  0.1102754E-07 -0.1379612E+01
  0.8400000E+00  0.7519971E+06 -0.1500577E+01  0.8406876E-01  0.3000459E+01  0.2816404E+06 -0.1054154E+00  0.5667804E+00 -0.2522249E+00  0.3033636E+07  0.1640999E+01  0.2739257E-07  0.1852891E+01
  0.8800000E+00  0.8026491E+06 -0.1483315E+01  0.3862983E-01 -0.2046766E+01  0.2555184E+06 -0.1220188E+00  0.1499744E+01 -0.2029905E-01  0.3205641E+07  0.1658258E+01  0.1869949E-07  0.9017677E+00
  0.9200000E+00  0.8507722E+06 -0.1463599E+01  0.1113129E+00  0.2872063E+01  0.2305642E+06 -0.1408446E+00  0.4813444E+00  0.1148651E+00  0.3362210E+07  0.1677976E+01  0.2674020E-07 -0.1648695E+01
  0.9600000E+00  0.8937789E+06 -0.1441693E+01  0.8089849E-01  0.2517650E+01  0.2072450E+06 -0.1605761E+00  0.1103025E+00 -0.9383207E+00  0.3493302E+07  0.1699871E+01  0.1949058E-07 -0.1233698E+01
  0.1000000E+01  0.9317300E+06 -0.1417755E+01  0.7753344E-01  0.2452713E+01  0.1856792E+06 -0.1819272E+00  0.2067902E+01 -0.2668334E-01  0.3602070E+07  0.1723815E+01  0.3704725E-07 -0.1609103E+01
  0.1040000E+01  0.9633934E+06 -0.1392555E+01  0.5825851E-01 -0.2411813E+01  0.1655368E+06 -0.2058080E+00  0.1217782E+01  0.1216749E+00  0.3678178E+07  0.1748989E+01  0.2778728E-07  0.2781972E+01
  0.1080000E+01  0.9878791E+06 -0.1366477E+01  0.6437500E-01 -0.1363588E+00  0.1467275E+06 -0.2326346E+00  0.4899385E+00  0.7483172E-01  0.3723503E+07  0.1775062E+01  0.1740009E-07  0.2157665E+00
  0.1120000E+01  0.1003263E+07 -0.1340332E+01  0.1108404E+00 -0.1791395E+01  0.1298160E+06 -0.2589419E+00  0.2294904E+00  0.2469071E+01  0.3729288E+07  0.1801159E+01  0.6333682E-08  0.1272298E+01
  0.1160000E+01  0.1010305E+07 -0.1314833E+01  0.8816571E-02  0.1677983E+00  0.1142924E+06 -0.2877782E+00  0.3950494E+00  0.2380228E+01  0.3703083E+07  0.1826648E+01  0.2315701E-07  0.1835285E+01
  0.1200000E+01  0.1009080E+07 -0.1291241E+01  0.6660106E-01 -0.3033011E+01  0.1000515E+06 -0.3196460E+00  0.5288005E+00  0.2954875E+01  0.3642468E+07  0.1850174E+01  0.2263859E-07 -0.2138117E+01
  0.1240000E+01  0.9997513E+06 -0.1270090E+01  0.5467394E-02  0.1485221E+01  0.8725498E+05 -0.3552398E+00  0.6862567E+00  0.2200590E-01  0.3553139E+07  0.1871323E+01  0.2092647E-07  0.2917192E+01
  0.1280000E+01  0.9820101E+06 -0.1252473E+01  0.1261177E+00  0.1250155E+01  0.7579291E+05 -0.3904337E+00  0.1119276E+01  0.1196707E+00  0.3431782E+07  0.1888765E+01  0.2319559E-07  0.1233174E+01
  0.1320000E+01  0.9587191E+06 -0.1238572E+01  0.6054870E-01  0.1729902E+01  0.6573230E+05 -0.4263934E+00  0.6445270E+00  0.2931365E+00  0.3295009E+07  0.1902751E+01  0.2475462E-07 -0.2860515E+00
  0.1360000E+01  0.9296684E+06 -0.1229621E+01  0.7438700E-01  0.1832131E+01  0.5671510E+05 -0.4664368E+00  0.3447520E+00  0.1929242E+00  0.3137024E+07  0.1911498E+01  0.2399301E-07  0.2394802E+01
  0.1400000E+01  0.8973836E+06 -0.1225204E+01  0.2155486E-01 -0.6206250E+00  0.4869759E+05 -0.5094256E+00  0.5794854E+00 -0.1434641E+00  0.2972599E+07  0.1915835E+01  0.2636909E-08 -0.2223127E+01
  0.1440000E+01  0.8617552E+06 -0.1225964E+01  0.5384408E-01  0.9920687E-01  0.4154526E+05 -0.5566102E+00  0.3315917E+00  0.5698889E+00  0.2800756E+07  0.1915095E+01  0.3265159E-07  0.1503113E+00
  0.1480000E+01  0.8240404E+06 -0.1232287E+01  0.2339986E-01  0.1061621E+01  0.3538698E+05 -0.6036714E+00  0.3914761E+00  0.2984414E+00  0.2624017E+07  0.1908350E+01  0.1203589E-08 -0.1827504E+01
  0.1520000E+01  0.7858224E+06 -0.1243169E+01  0.3911979E-01 -0.8585528E+00  0.2994097E+05 -0.6491218E+00  0.8635006E-01  0.1292146E+01  0.2452473E+07  0.1897710E+01  0.3413757E-07 -0.2066094E+01
  0.1560000E+01  0.7472984E+06 -0.1259507E+01  0.4900650E-01 -0.2377332E+01  0.2527504E+05 -0.7016749E+00  0.3329210E+00 -0.7394695E+00  0.2282576E+07  0.1881047E+01  0.2852735E-07 -0.1269372E+01
  0.1600000E+01  0.7095439E+06 -0.1280427E+01  0.6828134E-01 -0.1463183E+01  0.2114613E+05 -0.7580898E+00  0.1361372E+00  0.2988241E+01  0.2120344E+07  0.1859992E+01  0.1934212E-07  0.6013575E+00
  0.1640000E+01  0.6726028E+06 -0.1305822E+01  0.4359541E-01  0.1338000E+01  0.1768294E+05 -0.8169379E+00  0.3169304E+00  0.2603988E+00  0.1965834E+07  0.1834809E+01  0.9148978E-08  0.2910502E+01
  0.1680000E+01  0.6366076E+06 -0.1335974E+01  0.5584787E-01 -0.1441511E+01  0.1462409E+05 -0.8831015E+00  0.4774941E+00  0.3377758E+00  0.1818113E+07  0.1804502E+01  0.1608734E-07  0.4652657E+00
  0.1720000E+01  0.6019861E+06 -0.1370393E+01  0.9930951E-01  0.1722093E+01  0.1207564E+05 -0.9506159E+00  0.4023899E+00 -0.2214716E+01  0.1678882E+07  0.1769907E+01  0.4498050E-08 -0.8105642E+00
  0.1760000E+01  0.5689793E+06 -0.1408308E+01  0.3157330E-01  0.1524802E+01  0.9866308E+04 -0.1012642E+01  0.1248569E+00  0.6853305E+00  0.1549246E+07  0.1732518E+01  0.1638052E-07  0.9691494E+00
  0.1800000E+01  0.5375421E+06 -0.1450324E+01  0.1755707E-01 -0.6013810E+00  0.8162583E+04 -0.1103172E+01  0.2763559E+00 -0.1227288E+01  0.1427757E+07  0.1690387E+01  0.2401701E-07  0.1720406E+01
  0.1840000E+01  0.5076385E+06 -0.1495510E+01  0.8196387E-02  0.5401383E-01  0.6756180E+04 -0.1201527E+01  0.7942383E-01 -0.1766819E+01  0.1314805E+07  0.1645488E+01  0.1181845E-07  0.1744043E+01
  0.1880000E+01  0.4794957E+06 -0.1544082E+01  0.5415107E-01 -0.1392364E+01  0.5478613E+04 -0.1295376E+01  0.1381988E+00  0.1483073E+01  0.1210170E+07  0.1597397E+01  0.1076573E-07 -0.2765103E+01
  0.1920000E+01  0.4528718E+06 -0.1595875E+01  0.5129699E-01 -0.1711662E+01  0.4405931E+04 -0.1397395E+01  0.1321114E+00 -0.1569807E+01  0.1113039E+07  0.1546070E+01  0.4244564E-07 -0.1513168E+01
  0.1960000E+01  0.4277627E+06 -0.1650527E+01  0.1623993E-01  0.1866843E+01  0.3411216E+04 -0.1502751E+01  0.8408457E-01  0.1295311E+01  0.1023207E+07  0.1492043E+01  0.2227521E-07 -0.8519662E+00
  0.2000000E+01  0.4040834E+06 -0.1707777E+01  0.3447669E-01  0.1012596E+01  0.2819190E+04 -0.1643159E+01  0.2071689E-01  0.2873981E+01  0.9400217E+06  0.1435409E+01  0.1167872E-07  0.3061762E+01
  0.2040000E+01  0.3818086E+06 -0.1767744E+01  0.3257118E-01  0.1242380E+01  0.2174941E+04 -0.1775148E+01  0.7371345E-01  0.6494498E+00  0.8633570E+06  0.1375528E+01  0.1004415E-07  0.8017904E+00
  0.2080000E+01  0.3606952E+06 -0.1829811E+01  0.3269611E-01 -0.1463721E+01  0.2186536E+04 -0.1889461E+01  0.7963434E-01  0.2083976E+01  0.7917578E+06  0.1314536E+01  0.1595569E-07  0.1205194E+01
  0.2120000E+01  0.3407917E+06 -0.1894536E+01  0.9489852E-02 -0.2489759E+00  0.2198864E+04 -0.1842950E+01  0.1018695E+00 -0.2606306E+01  0.7256402E+06  0.1250335E+01  0.1544512E-07 -0.1806635E+01
  0.2160000E+01  0.3221496E+06 -0.1961966E+01  0.2026510E-01  0.3129734E+01  0.1204765E+04 -0.1210717E+01  0.4277142E-01  0.6483679E+00  0.6653513E+06  0.1182206E+01  0.4001543E-07 -0.1387951E+01
  0.2200000E+01  0.3045266E+06 -0.2030257E+01  0.1328288E-01 -0.1345461E+01  0.1444916E+04 -0.2893822E+01  0.7413141E-01 -0.1736845E+01  0.6090845E+06  0.1113898E+01  0.2412160E-07  0.2063451E+01
  0.2240000E+01  0.2877795E+06 -0.2100038E+01  0.2871602E-01 -0.8869268E+00  0.2066168E+04 -0.2530091E+01  0.6808533E-01  0.2375703E+01  0.5564961E+06  0.1044308E+01  0.2757446E-07 -0.5809770E+00
  0.2280000E+01  0.2716768E+06 -0.2171170E+01  0.2093691E-01  0.8678814E+00  0.1731156E+04 -0.2570190E+01  0.5229572E-01  0.4962963E+00  0.5065061E+06  0.9727674E+00  0.1910686E-07 -0.9903983E+00
  0.2320000E+01  0.2566281E+06 -0.2243517E+01  0.6451631E-02 -0.2565193E+01  0.1326167E+04 -0.2735999E+01  0.2697980E-02 -0.2323698E+01  0.4616060E+06  0.8972559E+00  0.1421224E-07 -0.2424304E+01
  0.2360000E+01  0.2423939E+06 -0.2316386E+01  0.4083304E-01 -0.1994408E+01  0.1122562E+04 -0.2834049E+01  0.2725952E-01  0.3232417E+00  0.4204078E+06  0.8199648E+00  0.1172505E-07 -0.1451367E+01
  0.2400000E+01  0.2284959E+06 -0.2389286E+01  0.1526133E-01  0.2444750E+01  0.9697734E+03 -0.3008092E+01  0.3808978E-01 -0.2115152E+01  0.3796017E+06  0.7418660E+00  0.4040753E-07  0.2549432E+01
  0.2440000E+01  0.2152160E+06 -0.2460627E+01  0.2018348E-01 -0.4787990E+00  0.8604673E+03 -0.3073637E+01  0.2701746E-01  0.2263376E+01  0.3418057E+06  0.6650187E+00  0.6187576E-08 -0.2170541E+01
  0.2480000E+01  0.2024343E+06 -0.2527092E+01  0.1035979E-01 -0.7655845E+00  0.7289326E+03 -0.3085122E+01  0.3567819E-01  0.1947144E+01  0.3060143E+06  0.5966983E+00  0.3196676E-07 -0.2786592E+00
  0.2520000E+01  0.1892122E+06 -0.2587132E+01  0.2358488E-01  0.1529055E+01  0.6197279E+03 -0.3077756E+01  0.2770424E-01 -0.2802061E+01  0.2688450E+06  0.5316914E+00  0.9231051E-08  0.2652563E+01
  0.2560000E+01  0.1749772E+06 -0.2635731E+01  0.1553823E-01 -0.1353539E+01  0.5187513E+03 -0.3045027E+01  0.7388175E-02 -0.3047055E+01  0.2283077E+06  0.4744117E+00  0.1237087E-07  0.3070956E+01
  0.2600000E+01  0.1582426E+06 -0.2663391E+01  0.2714694E-02 -0.1826511E+01  0.4251355E+03 -0.2998584E+01  0.2575411E-01 -0.2204614E+01  0.1804882E+06  0.4258771E+00  0.1534917E-07  0.2752636E+01
  0.2640000E+01  0.1356708E+06 -0.2645377E+01  0.4596777E-02  0.1126448E+01  0.3103853E+03 -0.3054023E+01  0.2842094E-01  0.3001025E+01  0.1200869E+06  0.3881080E+00  0.3854033E-08  0.2007423E+01
  0.2680000E+01  0.9591104E+05 -0.2508072E+01  0.1930548E-02 -0.1628131E+01  0.1962871E+03 -0.3104220E+01  0.1138807E-02 -0.1480415E+01  0.2711273E+05 -0.1827095E-01  0.1033493E-07  0.1740574E+01
  0.2720000E+01  0.2150469E+04  0.2815296E+01  0.6384604E-02 -0.2275518E+01  0.8883388E+02 -0.3136934E+01  0.2115215E-01 -0.2590430E+01  0.1728308E+06 -0.1945026E+01  0.1532478E-07 -0.5384043E+00
  0.2760000E+01  0.1194590E+06  0.1848262E+01  0.1802539E-01  0.1560585E+01  0.1249266E+02 -0.7490841E-01  0.5551589E-02  0.2847471E+01  0.3252960E+06 -0.1306113E+01  0.6530309E-08 -0.1904527E+01
  0.2800000E+01  0.1508070E+06  0.2190843E+01  0.9359015E-02  0.1141295E-01  0.1120856E+03 -0.4840883E-01  0.2382243E-01  0.2899351E+01  0.3145238E+06 -0.9815756E+00  0.1679110E-07 -0.6216601E+00
  0.2840000E+01  0.1508934E+06  0.2287649E+01  0.9059429E-03  0.7392327E+00  0.1987091E+03 -0.7647282E-01  0.2320805E-01  0.2385216E+01  0.2842588E+06 -0.8867447E+00  0.1281217E-07  0.1602604E+01
  0.2880000E+01  0.1457479E+06  0.2293830E+01  0.4525044E-02  0.4821221E+00  0.2677771E+03 -0.1480523E+00  0.3220904E-02  0.2434562E+01  0.2594065E+06 -0.8696387E+00  0.1305423E-07 -0.9023225E+00
  0.2920000E+01  0.1381256E+06  0.2248695E+01  0.3867433E-02  0.2279048E+01  0.3616013E+03 -0.1826334E+00  0.9739341E-02  0.2133352E+01  0.2315200E+06 -0.9188405E+00  0.1263790E-07 -0.1469295E+01
  0.2960000E+01  0.1310694E+06  0.2184212E+01  0.3423521E-02 -0.2978184E+01  0.4646753E+03 -0.2579612E+00  0.2434158E-02 -0.9587031E+00  0.2096632E+06 -0.9828216E+00  0.3774532E-08  0.1107148E+01
  0.3000000E+01  0.1243752E+06  0.2107380E+01  0.1097780E-01 -0.3005683E+00  0.6020244E+03 -0.3414371E+00  0.1595057E-01 -0.9614149E-01  0.1908585E+06 -0.1061231E+01  0.1247981E-07 -0.1815775E+01
  0.3040000E+01  0.1179503E+06  0.2023890E+01  0.3020862E-02 -0.2981803E+01  0.7024048E+03 -0.3836191E+00  0.1876901E-01  0.4203669E+00  0.1740699E+06 -0.1144507E+01  0.1249189E-07  0.1646150E+01
  0.3080000E+01  0.1116429E+06  0.1934167E+01  0.1150039E-01 -0.2910331E+01  0.7842221E+03 -0.4033151E+00  0.8635312E-02  0.2339114E+01  0.1584708E+06 -0.1232366E+01  0.1100236E-07  0.3067458E+01
  0.3120000E+01  0.1054870E+06  0.1841781E+01  0.9639101E-02  0.2182944E+01  0.8882399E+03 -0.4383551E+00  0.2974591E-01 -0.2968066E+01  0.1437209E+06 -0.1319819E+01  0.3491023E-08 -0.1313433E+01
  0.3160000E+01  0.9941740E+05  0.1748230E+01  0.1587153E-02 -0.2162298E+01  0.9949169E+03 -0.4421848E+00  0.1119228E-01  0.3031355E+01  0.1295414E+06 -0.1406734E+01  0.1666068E-07  0.1272940E+01
  0.3200000E+01  0.9332611E+05  0.1653976E+01  0.4502660E-02  0.3078540E+01  0.1139394E+04 -0.4112588E+00  0.1386459E-01 -0.2977803E+01  0.1154385E+06 -0.1493409E+01  0.1622783E-08 -0.1002692E+01
  0.3240000E+01  0.8715561E+05  0.1559046E+01  0.2623291E-02  0.2323285E+01  0.1397439E+04 -0.3245882E+00  0.2326572E-01 -0.1977338E+01  0.1012898E+06 -0.1581917E+01  0.9214305E-08 -0.6163071E-01
  0.3280000E+01  0.8094636E+05  0.1463645E+01  0.3343870E-02  0.2740483E+01  0.1652411E+04 -0.9185886E-01  0.1348953E-01 -0.7322535E+00  0.8740802E+05 -0.1674903E+01  0.1691397E-07  0.2802157E+01
  0.3320000E+01  0.7475446E+05  0.1369152E+01  0.1412428E-02 -0.1844274E+01  0.1709016E+04  0.2069449E+00  0.3214711E-01  0.3020553E+01  0.7423154E+05 -0.1771610E+01  0.1287587E-07  0.2885649E+01
  0.3360000E+01  0.6816807E+05  0.1277940E+01  0.9127616E-02 -0.2162891E+00  0.1345885E+04  0.3661941E+00  0.2138026E-01  0.4114601E+00  0.6010575E+05 -0.1868288E+01  0.6364695E-08 -0.4595577E+00
  0.3400000E+01  0.6115561E+05  0.1191415E+01  0.5451784E-02 -0.1021617E+01  0.1137194E+04  0.4184083E+00  0.2858867E-01  0.3987555E+00  0.4534241E+05 -0.1970081E+01  0.7061683E-08  0.3491232E+00
  0.3440000E+01  0.5350523E+05  0.1112441E+01  0.3408210E-02 -0.6027485E+00  0.9963041E+03  0.4239243E+00  0.1352126E-01  0.1969033E+01  0.2961202E+05 -0.2086951E+01  0.1043724E-07  0.1205825E+01
  0.3480000E+01  0.4478289E+05  0.1044805E+01  0.3212924E-02  0.1522098E+01  0.8626768E+03  0.3921340E+00  0.3045935E-02  0.2007398E+00  0.1211679E+05 -0.2327682E+01  0.1657913E-07  0.1729452E+01
  0.3520000E+01  0.3438885E+05  0.9978957E+00  0.7256979E-02  0.5761658E+00  0.6648564E+03  0.3381123E+00  0.9247199E-02  0.1168786E+01  0.9396307E+04  0.1396109E+01  0.7380183E-08 -0.1483930E+01
  0.3560000E+01  0.2125529E+05  0.9626320E+00  0.6582675E-02  0.1805620E+01  0.4129235E+03  0.2385854E+00  0.6267387E-02  0.1318704E+01  0.3374063E+05  0.1161445E+01  0.5809477E-08 -0.1275981E+01
  0.3600000E+01  0.4235330E+04  0.7367402E+00  0.1937270E-02  0.2854096E+01  0.3076230E+03  0.1687409E+00  0.1816180E-01  0.2398951E+01  0.6359846E+05  0.1153988E+01  0.6554827E-08  0.9717100E+00
  0.3640000E+01  0.1853874E+05 -0.1896277E+01  0.2801246E-02 -0.2334286E+01  0.2010004E+03  0.1037431E+00  0.6592995E-02  0.5582291E+00  0.9909292E+05  0.1235172E+01  0.1608382E-07 -0.1785049E+01
  0.3680000E+01  0.4454984E+05 -0.1744865E+01  0.1853984E-02  0.5559684E+00  0.8804196E+02  0.4372757E-01  0.2529823E-02  0.1038627E+01  0.1342936E+06  0.1404481E+01  0.8737043E-08  0.1403661E+00
  0.3720000E+01  0.6570729E+05 -0.1521377E+01  0.3089191E-02 -0.6267989E+00  0.2644452E+02  0.3128447E+01  0.4231644E-02 -0.1650662E+01  0.1534012E+06  0.1616989E+01  0.6501629E-08 -0.1312789E+01
  0.3760000E+01  0.7476566E+05 -0.1337224E+01  0.1293787E-02  0.2299612E+01  0.1516611E+03  0.3066623E+01  0.4250628E-02 -0.2091346E+01  0.1507741E+06  0.1789406E+01  0.1010381E-07 -0.1904616E+01
  0.3800000E+01  0.7479927E+05 -0.1236840E+01  0.7226068E-03  0.2926127E+01  0.2934905E+03  0.2992815E+01  0.9266287E-03 -0.7153028E+00  0.1370239E+06  0.1885241E+01  0.1578476E-07  0.7014518E+00
  0.3840000E+01  0.7079985E+05 -0.1203638E+01  0.8651557E-03 -0.5497773E+00  0.4303536E+03 -0.3123652E+00  0.2751413E-02 -0.3018584E+01  0.1201661E+06  0.1921696E+01  0.2366734E-08 -0.2347499E+01
  0.3880000E+01  0.6565025E+05 -0.1220175E+01  0.2931442E-02  0.2631809E+01  0.5557708E+03 -0.3863319E+00  0.4686282E-02 -0.3081976E+01  0.1037629E+06  0.1902275E+01  0.4477546E-08  0.4723683E+00
  0.3920000E+01  0.6025837E+05 -0.1263383E+01  0.1580254E-02  0.3087856E+01  0.6834811E+03 -0.4332979E+00  0.5530729E-02 -0.4331336E+00  0.8907173E+05  0.1859521E+01  0.3351273E-08  0.1899069E+01
  0.3960000E+01  0.5479755E+05 -0.1322335E+01  0.1025541E-02  0.8472437E-01  0.8081345E+03 -0.4412671E+00  0.1554739E-02 -0.1642100E+01  0.7549872E+05  0.1804265E+01  0.8769482E-08 -0.9551764E+00
  0.4000000E+01  0.4938241E+05 -0.1391168E+01  0.2256908E-02 -0.1146586E+00  0.1267613E+04 -0.3917414E+00  0.9551249E-02 -0.2218485E+01  0.6352295E+05  0.1740705E+01  0.1511625E-07  0.1420050E+01
  0.4040000E+01  0.4369948E+05 -0.1465966E+01  0.9650504E-03 -0.2313031E+01  0.1410134E+04 -0.3025096E+00  0.1743037E-02 -0.7910775E-01  0.5055429E+05  0.1671414E+01  0.8081552E-08 -0.1606816E+01
  0.4080000E+01  0.3789576E+05 -0.1544255E+01  0.1271989E-02  0.2307401E+01  0.1460616E+04 -0.1656239E+00  0.1541249E-02  0.1257323E+01  0.3786293E+05  0.1596639E+01  0.4893101E-08  0.3867156E-01
  0.4120000E+01  0.3184511E+05 -0.1621772E+01  0.2340847E-02  0.7977858E+00  0.1391891E+04 -0.6984036E-02  0.1147861E-01 -0.3065471E+01  0.2510032E+05  0.1520749E+01  0.5702343E-08 -0.1936137E+01
  0.4160000E+01  0.2535377E+05 -0.1695325E+01  0.5302670E-02 -0.3132061E+01  0.1197390E+04  0.1409993E+00  0.1872125E-01  0.5028301E-01  0.1181379E+05  0.1438783E+01  0.4685988E-08  0.3029564E+01
  0.4200000E+01  0.1827926E+05 -0.1764403E+01  0.6197581E-02  0.3113122E+01  0.9479768E+03  0.2486908E+00  0.1369333E-01  0.2032011E+00  0.2232994E+04 -0.1531249E+01  0.6829981E-08 -0.1690395E+01
  0.4240000E+01  0.1046886E+05 -0.1834754E+01  0.1770815E-02  0.2639883E+01  0.7056965E+03  0.3089821E+00  0.2139183E-02 -0.1042411E+01  0.1703087E+05 -0.1740526E+01  0.9419215E-08 -0.2514159E+01
  0.4280000E+01  0.1796296E+04 -0.2101587E+01  0.1399592E-02 -0.2471241E+01  0.4983608E+03  0.3262873E+00  0.7496116E-02 -0.3059482E+01  0.3279684E+05 -0.1782488E+01  0.3437833E-08 -0.1827581E+01
  0.4320000E+01  0.8108573E+04  0.1370939E+01  0.2206943E-02 -0.5905194E+00  0.3323429E+03  0.3052776E+00  0.5715505E-02 -0.8311915E+00  0.4953702E+05 -0.1796901E+01  0.3547274E-08 -0.2912604E+00
  0.4360000E+01  0.1930700E+05  0.1362043E+01  0.9979461E-04  0.2256359E+01  0.2688507E+03  0.2281532E+00  0.3213640E-02  0.2384489E+01  0.6913038E+05 -0.1776903E+01  0.3414030E-08 -0.2191307E+00
  0.4400000E+01  0.3039029E+05  0.1415828E+01  0.4724377E-03  0.8998383E+00  0.1498139E+03  0.1483604E+00  0.3089122E-03 -0.2369536E+01  0.8519288E+05 -0.1720859E+01  0.7688370E-08 -0.1835056E+01
  0.4440000E+01  0.3990550E+05  0.1502235E+01  0.6419808E-03  0.2954409E+00  0.5621299E+02  0.6162311E-01  0.4461741E-02 -0.2733262E+01  0.9652402E+05 -0.1637103E+01  0.1418014E-07 -0.1136525E+01
  0.4480000E+01  0.4592233E+05  0.1595452E+01  0.1906116E-02 -0.5205713E-01  0.1964762E+02  0.3117718E+01  0.8197532E-03  0.1402993E+01  0.9997715E+05 -0.1547222E+01  0.3892196E-08  0.2319174E+01
  0.4520000E+01  0.4793570E+05  0.1670458E+01  0.4518645E-03 -0.2625064E+01  0.8252354E+02  0.3035736E+01  0.9188952E-03 -0.5334951E+00  0.9619188E+05 -0.1476035E+01  0.1072290E-07 -0.1236171E+01
  0.4560000E+01  0.4671753E+05  0.1715490E+01  0.1522091E-02  0.2791109E+01  0.1360313E+03  0.2967798E+01  0.2386265E-02 -0.2228093E+01  0.8752039E+05 -0.1433740E+01  0.1891749E-08 -0.2214297E+01
  0.4600000E+01  0.4344865E+05  0.1730778E+01  0.7426149E-03 -0.1334227E+01  0.1813297E+03  0.2926190E+01  0.1949525E-02  0.3132344E+01  0.7631885E+05 -0.1418926E+01  0.5292817E-08 -0.1977854E+01
  0.4640000E+01  0.3898295E+05  0.1722318E+01  0.1147519E-02  0.3037521E+01  0.2160894E+03  0.2919946E+01  0.9677412E-03  0.8990001E+00  0.6397388E+05 -0.1425555E+01  0.2387422E-08 -0.2343264E+01
  0.4680000E+01  0.3382746E+05  0.1696447E+01  0.1207656E-02  0.2968978E+01  0.2348452E+03  0.2952551E+01  0.3830152E-02 -0.1404377E+01  0.5117849E+05 -0.1447926E+01  0.3570190E-08 -0.4445068E+00
  0.4720000E+01  0.2828643E+05  0.1656804E+01  0.6077168E-03 -0.4875110E+00  0.2359830E+03  0.2996159E+01  0.1728589E-02  0.2983841E+01  0.3839378E+05 -0.1486034E+01  0.6378256E-08 -0.1172495E+01
  0.4760000E+01  0.2247631E+05  0.1610348E+01  0.1035683E-02  0.2524983E+01  0.2225689E+03  0.3047533E+01  0.9062051E-02  0.2922181E+01  0.2574273E+05 -0.1532125E+01  0.3581663E-08  0.2246806E+01
  0.4800000E+01  0.1637184E+05  0.1563454E+01  0.1341396E-02 -0.3019001E+01  0.1929006E+03  0.3118870E+01  0.7344467E-02 -0.2805718E+00  0.1303696E+05 -0.1577976E+01  0.5646219E-08 -0.2965428E+01
  0.4840000E+01  0.9957852E+04  0.1519024E+01  0.7668021E-03  0.1119358E-01  0.1513835E+03 -0.3080916E+01  0.2742841E-02 -0.3095914E+01  0.2116767E+03 -0.1738279E+01  0.8594255E-09 -0.1076855E+01
  0.4880000E+01  0.3171472E+04  0.1471584E+01  0.1437994E-03 -0.1190290E+01  0.1920270E+03 -0.3020485E+01  0.7599177E-02 -0.6225734E-01  0.1310050E+05  0.1494262E+01  0.2823071E-08 -0.1570797E+01
  0.4920000E+01  0.3826657E+04 -0.1660572E+01  0.8698594E-03  0.2671081E+01  0.1346867E+03 -0.2964547E+01  0.1925625E-02 -0.2975508E+01  0.2608142E+05  0.1470853E+01  0.3498881E-08  0.1763298E+01
  0.4960000E+01  0.1094311E+05 -0.1682048E+01  0.1320090E-02  0.2300410E+00  0.8448693E+02 -0.2924788E+01  0.3962097E-02  0.2453619E+01  0.3862203E+05  0.1460639E+01  0.3131616E-08 -0.1857759E+00
  0.5000000E+01  0.1794391E+05 -0.1675683E+01  0.1480321E-02 -0.2613796E+01  0.4546672E+02 -0.2908144E+01  0.2994695E-02 -0.4433944E+00  0.5014145E+05  0.1469274E+01  0.1138489E-07 -0.1523806E+01
  0.5040000E+01  0.2422852E+05 -0.1646908E+01  0.6306494E-03  0.5550728E+00  0.1906600E+02 -0.2919864E+01  0.2294400E-02  0.1762650E+00  0.5942648E+05  0.1497907E+01  0.5126324E-09 -0.1684588E+01
  0.5080000E+01  0.2902330E+05 -0.1606704E+01  0.1535392E-02  0.2798234E+01  0.4430338E+01 -0.2964674E+01  0.6231801E-03  0.1673627E+01  0.6522425E+05  0.1536590E+01  0.9821972E-08  0.1624158E+01
  0.5120000E+01  0.3176296E+05 -0.1565120E+01  0.6533177E-03  0.3064149E+01  0.1155790E+00 -0.1982773E+00  0.6170545E-03 -0.2265531E+01  0.6680395E+05  0.1576162E+01  0.5141173E-08  0.2034444E+01
  0.5160000E+01  0.3230348E+05 -0.1531889E+01  0.1706118E-03  0.2995743E+01  0.3543931E+01 -0.2887658E+01  0.3681112E-03  0.7760515E+00  0.6423695E+05  0.1607409E+01  0.1556933E-07 -0.1510943E+01
  0.5200000E+01  0.3094101E+05 -0.1512372E+01  0.5986188E-03 -0.1727564E+01  0.1349795E+02 -0.2972794E+01  0.7145087E-03  0.9708431E+00  0.5842140E+05  0.1625411E+01  0.2032481E-08 -0.2079286E+01
  0.5240000E+01  0.2812440E+05 -0.1507178E+01  0.4860146E-03  0.3103320E+01  0.2815561E+02 -0.3033534E+01  0.1537903E-02 -0.2867474E+01  0.5032800E+05  0.1629996E+01  0.5378345E-08  0.1513947E+01
  0.5280000E+01  0.2426994E+05 -0.1513937E+01  0.4096043E-03  0.1879493E+00  0.4630968E+02 -0.3088070E+01  0.3895338E-02  0.2974019E+01  0.4074969E+05  0.1623700E+01  0.6551953E-08  0.9867975E+00
  0.5320000E+01  0.1969078E+05 -0.1529052E+01  0.1236287E-03 -0.2416232E+01  0.6689790E+02 -0.3129893E+01  0.2163218E-02 -0.2392028E+01  0.3024872E+05  0.1609905E+01  0.4870964E-08  0.1888296E+01
  0.5360000E+01  0.1460951E+05 -0.1548839E+01  0.8258820E-03  0.1321489E-07  0.8819475E+02  0.3132585E+01  0.8184561E-03  0.1030276E+01  0.1923109E+05  0.1591712E+01  0.2761033E-08 -0.1892547E+01
  0.5400000E+01  0.9201103E+04 -0.1569966E+01  0.5238659E-03  0.3707027E+00  0.1071750E+03  0.3135614E+01  0.1052734E-01 -0.3139460E+01  0.8037547E+04  0.1571612E+01  0.3231050E-08 -0.1872607E+01
  0.5440000E+01  0.3619832E+04 -0.1589024E+01  0.1938550E-02  0.3115025E+01  0.1186065E+03 -0.3128006E+01  0.9311270E-02 -0.5045080E-02  0.3028794E+04 -0.1588765E+01  0.1694095E-08  0.1327901E+01
  0.5480000E+01  0.1986161E+04  0.1539715E+01  0.5218309E-03  0.3017917E+01  0.1192255E+03 -0.3114171E+01  0.5849494E-03 -0.2644971E+01  0.1370634E+05 -0.1602209E+01  0.1708223E-08  0.1416851E+01
  0.5520000E+01  0.7397163E+04  0.1532952E+01  0.8882172E-03 -0.1631188E+00  0.1110968E+03 -0.3109011E+01  0.2848618E-02  0.3095564E+01  0.2357150E+05 -0.1608563E+01  0.2890671E-08 -0.1651429E+01
  0.5560000E+01  0.1233787E+05  0.1533462E+01  0.2207212E-03  0.4780194E+00  0.9470025E+02 -0.3110959E+01  0.4162538E-03  0.1816993E+01  0.3210729E+05 -0.1607823E+01  0.1340513E-08 -0.2393144E+01
  0.5600000E+01  0.1650588E+05  0.1540491E+01  0.1110646E-02  0.1267780E+00  0.7085468E+02 -0.3117894E+01  0.9958108E-03 -0.2390659E+01  0.3877322E+05 -0.1600696E+01  0.3759030E-08  0.2202296E+01
  0.5640000E+01  0.1964927E+05  0.1552707E+01  0.7949738E-03 -0.3836252E+00  0.3204027E+02 -0.3129179E+01  0.1746726E-03 -0.4276931E+00  0.4322434E+05 -0.1588540E+01  0.1515148E-08 -0.4803983E-01
  0.5680000E+01  0.2146123E+05  0.1568206E+01  0.2966065E-03 -0.1998488E+01  0.4560353E+01 -0.3141006E+01  0.7001907E-03  0.2663333E+01  0.4485482E+05 -0.1573328E+01  0.1667830E-08  0.5104883E+00
  0.5720000E+01  0.2186462E+05  0.1584793E+01  0.2096457E-03 -0.2514469E+01  0.2643348E+02 -0.9381281E-02  0.3706756E-03  0.1546041E+01  0.4371832E+05 -0.1557201E+01  0.9215511E-08 -0.1600803E+01
  0.5760000E+01  0.2086262E+05  0.1598884E+01  0.1231295E-03  0.9908494E+00  0.5913713E+02 -0.1979458E-01  0.4232299E-03  0.1014326E+00  0.3995946E+05 -0.1543604E+01  0.4045439E-08  0.1572595E+01
  0.5800000E+01  0.1861765E+05  0.1602172E+01  0.4169673E-03 -0.3404661E+00  0.9165337E+02 -0.2252748E-01  0.2685044E-02  0.2309045E+00  0.3402247E+05 -0.1540651E+01  0.5297397E-08 -0.1557061E+01
  0.5840000E+01  0.1550966E+05  0.1597937E+01  0.2984974E-03  0.2487068E+01  0.1211274E+03 -0.1988658E-01  0.3028590E-02 -0.3128190E+01  0.2670841E+05 -0.1544968E+01  0.5040053E-08 -0.1629658E+01
  0.5880000E+01  0.1179261E+05  0.1588786E+01  0.8277832E-04 -0.1788528E+01  0.1446668E+03 -0.1354780E-01  0.1522299E-02  0.3097402E+01  0.1852169E+05 -0.1553867E+01  0.1265682E-08  0.1267226E+01
  0.5920000E+01  0.7680001E+04  0.1577796E+01  0.7010546E-03  0.3318599E+00  0.1597780E+03 -0.5968725E-02  0.1494782E-02 -0.6459819E-02  0.9878211E+04 -0.1564302E+01  0.1490986E-08 -0.1898720E+01
  0.5960000E+01  0.3369010E+04  0.1567632E+01  0.4405028E-03 -0.3364705E+00  0.1648494E+03  0.5428718E-03  0.4889668E-02  0.6776832E-03  0.1163544E+04 -0.1573937E+01  0.5677112E-09 -0.2563534E-01
  0.6000000E+01  0.9341116E+03 -0.1577471E+01  0.1703544E-03 -0.2987028E+01  0.1593270E+03  0.4539364E-02  0.6284422E-03  0.3110763E+01  0.7217347E+04  0.1562208E+01  0.2703877E-08  0.1155304E+01
  0.6039999E+01  0.4998679E+04 -0.1582186E+01  0.7546820E-03  0.8476786E-01  0.1435737E+03  0.5855554E-02  0.2414412E-02 -0.2220311E+00  0.1482097E+05  0.1559862E+01  0.1998863E-08 -0.1851096E+01