VARIABLES="w (rad/s)"
"abs(F   1   1)" "angle(F   1   1)"
"abs(F   1   2)" "angle(F   1   2)"
"abs(F   1   3)" "angle(F   1   3)"
"abs(F   1   4)" "angle(F   1   4)"
"abs(F   1   5)" "angle(F   1   5)"
"abs(F   1   6)" "angle(F   1   6)"
Zone t="FKforce - beta =   0.000",I=   525,F=POINT
  0.4000000E-01  0.1270522E+05 -0.1570794E+01  0.4534924E-01  0.2336911E-02  0.7687897E+06  0.8683415E-10  0.3007385E+01 -0.7927770E-06  0.5572225E+05  0.1570778E+01  0.2048964E-07 -0.7279701E-02
  0.8000000E-01  0.2547600E+05 -0.1570793E+01  0.2456852E-02 -0.3129268E+01  0.7653227E+06  0.1993772E-10  0.4411926E+01 -0.3141580E+01  0.1116731E+06  0.1570796E+01  0.4657073E-08  0.1406157E-01
  0.1200000E+00  0.3838058E+05 -0.1570796E+01  0.4486108E-01  0.3295056E-02  0.7595529E+06  0.1104905E-09  0.1639038E+01  0.6033784E-03  0.1680915E+06  0.1570793E+01  0.1770949E-07  0.4027426E-01
  0.1600000E+00  0.5149294E+05 -0.1570796E+01  0.2837619E-01 -0.3114905E+01  0.7515007E+06  0.5888283E-09  0.6575120E-02  0.3275298E+00  0.2252369E+06  0.1570796E+01  0.3637546E-07 -0.5443335E-01
  0.2000000E+00  0.6489493E+05 -0.1570795E+01  0.3637695E-01  0.3141475E+01  0.7411927E+06  0.0000000E+00  0.1554568E+01 -0.1878433E-02  0.2834001E+06  0.1570796E+01  0.1783284E-07 -0.3017238E+01
  0.2400000E+00  0.7868038E+05 -0.1570796E+01  0.2375917E-01 -0.3131397E+01  0.7286676E+06  0.1047034E-09  0.8979492E+00  0.3141431E+01  0.3429133E+06  0.1570796E+01  0.2015265E-07 -0.2435776E+00
  0.2800000E+00  0.9295694E+05 -0.1570797E+01  0.2724858E-01 -0.3112364E+01  0.7139779E+06 -0.4488018E-09  0.2188232E+01  0.3141356E+01  0.4041635E+06  0.1570795E+01  0.4704844E-07 -0.2660263E-01
  0.3200000E+00  0.1078489E+06 -0.1570797E+01  0.7782289E-01  0.8872316E-02  0.6971956E+06  0.4814909E-09  0.1615774E+00  0.4154036E-01  0.4675917E+06  0.1570797E+01  0.9599853E-08  0.2896614E+01
  0.3600000E+00  0.1234974E+06 -0.1570796E+01  0.1698508E+00 -0.3133738E+01  0.6784139E+06 -0.2699023E-09  0.2212348E+01 -0.3139237E+01  0.5336999E+06  0.1570795E+01  0.2827868E-08  0.1549967E+00
  0.4000000E+00  0.1400573E+06 -0.1570796E+01  0.5927964E-02 -0.2858210E+01  0.6577581E+06 -0.3711709E-09  0.1469455E+01 -0.2107949E-02  0.6030282E+06  0.1570796E+01  0.6092718E-08  0.2440738E+01
  0.4400000E+00  0.1576880E+06 -0.1570796E+01  0.1599046E-01 -0.3098997E+01  0.6353868E+06 -0.1104688E-08  0.7806844E+00 -0.1070131E-01  0.6761161E+06  0.1570797E+01  0.9055174E-08 -0.6898000E+00
  0.4800000E+00  0.1765353E+06 -0.1570796E+01  0.1718514E-01  0.2086731E-01  0.6114994E+06 -0.1996246E-09  0.2325562E+01  0.3140799E+01  0.7534168E+06  0.1570796E+01  0.2146592E-08  0.8621700E+00
  0.5200000E+00  0.1967011E+06 -0.1570796E+01  0.2666512E-01  0.4178552E-01  0.5863342E+06 -0.2550357E-08  0.3008883E+01 -0.3140500E+01  0.8351801E+06  0.1570797E+01  0.6273749E-08  0.4719462E+00
  0.5600000E+00  0.2182098E+06 -0.1570796E+01  0.2157700E-01 -0.3102688E+01  0.5601567E+06  0.2179217E-09  0.1678589E+00  0.1206760E-01  0.9212972E+06  0.1570796E+01  0.9814854E-08  0.1181480E+01
  0.6000000E+00  0.2409762E+06 -0.1570796E+01  0.4059141E-01  0.3129375E+01  0.5332454E+06  0.4006093E-09  0.1952398E+01  0.2332902E-02  0.1011196E+07  0.1570796E+01  0.1568283E-07 -0.2824537E+01
  0.6400000E+00  0.2647980E+06 -0.1570796E+01  0.2880107E-01  0.3046616E+01  0.5058688E+06 -0.1266868E-08  0.1807653E+01  0.3139208E+01  0.1103807E+07  0.1570796E+01  0.1186080E-07  0.1925833E+00
  0.6800000E+00  0.2893798E+06 -0.1570796E+01  0.4404398E-01  0.3109714E+01  0.4782648E+06  0.5104717E-09  0.2781780E+01  0.2772803E-02  0.1197686E+07  0.1570796E+01  0.8951877E-08 -0.2782822E+01
  0.7200000E+00  0.3143752E+06 -0.1570796E+01  0.6406076E-01  0.3129921E+01  0.4506374E+06  0.6230324E-08  0.2064341E+01  0.3135365E+01  0.1291197E+07  0.1570796E+01  0.1993117E-07 -0.2223643E+01
  0.7600000E+00  0.3394331E+06 -0.1570796E+01  0.7214591E-01  0.3086575E+01  0.4231597E+06 -0.1038504E-07  0.1227223E+01 -0.3135879E+01  0.1382722E+07  0.1570796E+01  0.3841988E-07  0.2300458E+01
  0.8000000E+00  0.3642307E+06 -0.1570796E+01  0.3828384E-01 -0.3113789E+01  0.3959813E+06 -0.9864733E-08  0.1423493E+01  0.1733927E-01  0.1470803E+07  0.1570797E+01  0.1451461E-07 -0.1031752E+01
  0.8400000E+00  0.3884852E+06 -0.1570796E+01  0.8615491E-01 -0.3090918E+01  0.3692401E+06  0.8264968E-09  0.3521445E+00 -0.1362803E-01  0.1554179E+07  0.1570796E+01  0.1119526E-07  0.2846152E+01
  0.8800000E+00  0.4119570E+06 -0.1570796E+01  0.5263145E-02 -0.3068323E+01  0.3430621E+06  0.2846606E-08  0.1527827E+01 -0.5807617E-02  0.1631811E+07  0.1570796E+01  0.1789164E-07  0.9611365E+00
  0.9200000E+00  0.4344418E+06 -0.1570796E+01  0.1280643E+00  0.3120740E+01  0.3175675E+06  0.0000000E+00  0.6154801E+00  0.2644342E-01  0.1702847E+07  0.1570796E+01  0.3852925E-07 -0.1679785E+01
  0.9600000E+00  0.4557644E+06 -0.1570796E+01  0.5785879E-01 -0.3120625E+01  0.2928652E+06  0.1875663E-08  0.1093091E-01  0.2284570E+01  0.1766604E+07  0.1570796E+01  0.2137101E-07  0.1701908E+01
  0.1000000E+01  0.4757744E+06 -0.1570796E+01  0.6381969E-01  0.3070762E+01  0.2690553E+06 -0.6578645E-08  0.1990892E+01 -0.4119571E-02  0.1822536E+07  0.1570796E+01  0.2293116E-07 -0.1796073E+01
  0.1040000E+01  0.4943414E+06 -0.1570796E+01  0.5348026E-02  0.2908378E+01  0.2462244E+06 -0.5205571E-08  0.1265641E+01 -0.4997306E-02  0.1870222E+07  0.1570796E+01  0.2207966E-07 -0.2896614E+01
  0.1080000E+01  0.5113537E+06 -0.1570796E+01  0.3738234E-01  0.2694325E-01  0.2244443E+06 -0.8702048E-08  0.4406852E+00  0.3969084E-01  0.1909368E+07  0.1570796E+01  0.1721215E-07 -0.5241796E+00
  0.1120000E+01  0.5267161E+06 -0.1570796E+01  0.9257638E-02 -0.5507371E+00  0.2037739E+06  0.8386669E-08  0.2734863E+00  0.3068242E+01  0.1939781E+07  0.1570796E+01  0.1343980E-07  0.1815775E+01
  0.1160000E+01  0.5403501E+06 -0.1570796E+01  0.6975875E-02 -0.2734548E-01  0.1842573E+06 -0.1987498E-08  0.3165074E+00  0.3104680E+01  0.1961378E+07  0.1570796E+01  0.1487567E-07 -0.2267539E+01
  0.1200000E+01  0.5521912E+06 -0.1570796E+01  0.5828862E-01  0.3140284E+01  0.1659235E+06  0.0000000E+00  0.3865744E+00 -0.3077486E+01  0.1974174E+07  0.1570796E+01  0.1178040E-07 -0.1249046E+01
  0.1240000E+01  0.5621911E+06 -0.1570796E+01  0.2855392E-02 -0.1533381E+01  0.1487890E+06 -0.3281703E-08  0.5632763E+00  0.8628066E-02  0.1978282E+07  0.1570796E+01  0.2843300E-07  0.2655971E+01
  0.1280000E+01  0.5703143E+06 -0.1570796E+01  0.1142763E-01  0.1670146E+00  0.1328554E+06 -0.1010703E-07  0.1205008E+01  0.5938894E-02  0.1973894E+07  0.1570796E+01  0.9480526E-08  0.2001489E+01
  0.1320000E+01  0.5765404E+06 -0.1570796E+01  0.5092414E-02  0.1672850E+01  0.1181139E+06 -0.1317708E-07  0.7485276E+00  0.1355649E-01  0.1961292E+07  0.1570796E+01  0.1023661E-07 -0.1270625E+01
  0.1360000E+01  0.5808595E+06 -0.1570796E+01  0.2291949E-01 -0.2873764E+01  0.1045446E+06 -0.5838194E-09  0.3799643E+00  0.3650213E-01  0.1940819E+07  0.1570796E+01  0.2296069E-07  0.2102520E+01
  0.1400000E+01  0.5832729E+06 -0.1570796E+01  0.7873021E-02 -0.3091861E+00  0.9211793E+05 -0.4306746E-08  0.5375800E+00 -0.4420856E-02  0.1912897E+07  0.1570796E+01  0.5360164E-08 -0.3098142E+01
  0.1440000E+01  0.5837951E+06 -0.1570796E+01  0.5767464E-01 -0.3056221E-01  0.8079560E+05 -0.2492908E-07  0.2246510E+00  0.3079060E-01  0.1877987E+07  0.1570796E+01  0.1447488E-07 -0.1942410E+00
  0.1480000E+01  0.5824481E+06 -0.1570796E+01  0.1277233E-01  0.4492217E+00  0.7053287E+05 -0.2163359E-08  0.3747457E+00 -0.3837569E-01  0.1836601E+07  0.1570796E+01  0.1598624E-07 -0.1709604E+01
  0.1520000E+01  0.5792648E+06 -0.1570796E+01  0.2951755E-01 -0.1202193E+00  0.6127874E+05 -0.3984100E-07  0.9596994E-01 -0.3169929E+00  0.1789287E+07  0.1570796E+01  0.2662859E-07 -0.2077470E+01
  0.1560000E+01  0.5742841E+06 -0.1570796E+01  0.2223770E-01  0.2705950E+01  0.5297781E+05 -0.1670529E-07  0.2446100E+00  0.1309982E-02  0.1736618E+07  0.1570796E+01  0.5597628E-08 -0.2356194E+01
  0.1600000E+01  0.5675532E+06 -0.1570796E+01  0.2227839E-01  0.2090483E+00  0.4557129E+05 -0.2343834E-07  0.1170838E+00  0.3003467E+01  0.1679185E+07  0.1570796E+01  0.7781561E-08  0.6794138E+00
  0.1640000E+01  0.5591258E+06 -0.1570796E+01  0.8100672E-02 -0.2260566E-01  0.3899832E+05 -0.2034593E-07  0.2908781E+00  0.8773660E-02  0.1617584E+07  0.1570796E+01  0.3390565E-08  0.2934096E+01
  0.1680000E+01  0.5490601E+06 -0.1570796E+01  0.4188038E-02  0.2616585E+00  0.3319672E+05  0.5194016E-07  0.4568493E+00  0.4918052E-01  0.1552413E+07  0.1570796E+01  0.6507033E-08  0.1195273E+01
  0.1720000E+01  0.5374234E+06 -0.1570796E+01  0.8723942E-02  0.3068065E+01  0.2810439E+05  0.4506341E-07  0.2409437E+00 -0.3050749E+01  0.1484271E+07  0.1570796E+01  0.5707487E-08 -0.1113990E+01
  0.1760000E+01  0.5242842E+06 -0.1570796E+01  0.5370318E-02  0.2567954E+01  0.2365962E+05 -0.1289859E-08  0.9456535E-01 -0.1553124E-01  0.1413736E+07  0.1570796E+01  0.1707933E-07  0.6954337E+00
  0.1800000E+01  0.5097158E+06 -0.1570796E+01  0.1708417E-01  0.1764184E+00  0.1980236E+05 -0.4623324E-08  0.1057741E+00 -0.2749824E+00  0.1341363E+07  0.1570796E+01  0.5109774E-08  0.1865526E+01
  0.1840000E+01  0.4937971E+06 -0.1570796E+01  0.1081864E-01  0.7738041E+00  0.1647438E+05  0.4353202E-07  0.2513894E-01 -0.2750354E+01  0.1267691E+07  0.1570796E+01  0.1306046E-07 -0.1512826E+01
  0.1880000E+01  0.4766115E+06 -0.1570796E+01  0.5522301E-02 -0.2228113E+01  0.1362038E+05  0.4201091E-07  0.1657864E-01  0.8932429E+00  0.1193236E+07  0.1570796E+01  0.1235374E-07 -0.1617931E+01
  0.1920000E+01  0.4582449E+06 -0.1570796E+01  0.1026188E-01  0.2786216E+01  0.1118780E+05  0.7228548E-07  0.5259662E-02 -0.1323965E+01  0.1118475E+07  0.1570796E+01  0.4165001E-08  0.1107149E+01
  0.1960000E+01  0.4387879E+06 -0.1570796E+01  0.3403046E-02  0.1992321E+01  0.9127462E+04  0.5098822E-07  0.3853271E-01  0.4771854E+00  0.1043854E+07  0.1570796E+01  0.1145671E-07 -0.1662376E+01
  0.2000000E+01  0.4183352E+06 -0.1570796E+01  0.1951074E-01  0.3508757E+00  0.7393710E+04  0.2166940E-07  0.4828489E-02  0.7739807E+00  0.9697915E+06  0.1570796E+01  0.6485911E-08 -0.1937970E+01
  0.2040000E+01  0.3969853E+06 -0.1570796E+01  0.7036209E-02 -0.9168857E+00  0.5944523E+04  0.1058832E-06  0.4367831E-01  0.6688388E-01  0.8966614E+06  0.1570796E+01  0.1383580E-07 -0.1182478E+01
  0.2080000E+01  0.3748406E+06 -0.1570796E+01  0.5164982E-02 -0.1214235E+00  0.4741599E+04  0.8045171E-09  0.3106528E-01  0.3044061E+01  0.8248126E+06  0.1570796E+01  0.1653589E-07  0.1006227E+01
  0.2120000E+01  0.3520071E+06 -0.1570796E+01  0.1863463E-02  0.4505146E-01  0.3750278E+04  0.6815088E-07  0.3737824E-01 -0.2992265E+01  0.7545529E+06  0.1570796E+01  0.1641910E-07 -0.1888063E+01
  0.2160000E+01  0.3285963E+06 -0.1570796E+01  0.5091156E-02  0.1262137E+00  0.2939468E+04  0.6099430E-07  0.3264899E-01 -0.1487296E+00  0.6861606E+06  0.1570796E+01  0.2206370E-07 -0.1443824E+01
  0.2200000E+01  0.3047227E+06 -0.1570796E+01  0.4638697E-02  0.3915017E+00  0.2281518E+04  0.1379399E-06  0.1205710E-01  0.3023345E+01  0.6198821E+06  0.1570796E+01  0.5026123E-08 -0.2907850E+01
  0.2240000E+01  0.2805048E+06 -0.1570796E+01  0.8508199E-02  0.2172229E+01  0.1752032E+04  0.1730952E-06  0.4353993E-01  0.2993007E+01  0.5559299E+06  0.1570796E+01  0.1152747E-07 -0.1550597E+01
  0.2280000E+01  0.2560642E+06 -0.1570796E+01  0.1550124E-02 -0.4184747E-01  0.1329658E+04 -0.2868932E-08  0.5239560E-02  0.2652810E+01  0.4944919E+06  0.1570796E+01  0.5102392E-08  0.1096945E+01
  0.2320000E+01  0.2315277E+06 -0.1570796E+01  0.2440288E-02  0.2058915E+01  0.9958853E+03 -0.1187442E-06  0.2169674E-01 -0.5699066E-01  0.4357257E+06  0.1570796E+01  0.2643551E-07 -0.1597222E+01
  0.2360000E+01  0.2070235E+06 -0.1570796E+01  0.1740607E-02  0.2975363E+01  0.7347758E+03 -0.2076659E-07  0.2915017E-01 -0.1870959E+00  0.3797646E+06  0.1570796E+01  0.8277981E-08 -0.2964884E+01
  0.2400000E+01  0.1826827E+06 -0.1570796E+01  0.6769891E-02 -0.2824119E+01  0.5327373E+03  0.1432112E-06  0.3215093E-02  0.7467035E-01  0.3267195E+06  0.1570796E+01  0.2013278E-07  0.1466525E+01
  0.2440000E+01  0.1586387E+06 -0.1570796E+01  0.7919312E-02  0.1204239E-03  0.3782754E+03 -0.1260556E-08  0.4528055E-02 -0.1928974E+01  0.2766791E+06  0.1570796E+01  0.7087246E-09 -0.1236060E+01
  0.2480000E+01  0.1350251E+06 -0.1570796E+01  0.3449697E-02  0.4991068E+00  0.2617564E+03  0.2641440E-06  0.4658843E-02 -0.2861388E+01  0.2297113E+06  0.1570796E+01  0.1132503E-07 -0.1570796E+01
  0.2520000E+01  0.1119763E+06 -0.1570796E+01  0.9401507E-03  0.1833490E+01  0.1751810E+03  0.1388204E-06  0.3118740E-02 -0.2332090E+01  0.1858657E+06  0.1570796E+01  0.8420820E-08  0.1203126E+01
  0.2560000E+01  0.8962481E+05 -0.1570796E+01  0.1510928E-02  0.1590996E+01  0.1119688E+03 -0.2470024E-06  0.5324452E-02 -0.2185955E+01  0.1451750E+06  0.1570796E+01  0.5949723E-08 -0.5337082E+00
  0.2600000E+01  0.6810219E+05 -0.1570796E+01  0.3793806E-02 -0.2035087E+00  0.6676289E+02  0.8213586E-07  0.2923605E-02 -0.1798216E+01  0.1076557E+06  0.1570796E+01  0.1216094E-07  0.1963747E+01
  0.2640000E+01  0.4753534E+05 -0.1570796E+01  0.2626562E-02 -0.2921978E+01  0.3524446E+02  0.4227944E-06  0.1595058E-01 -0.3075671E+01  0.7330806E+05  0.1570797E+01  0.3616378E-08  0.1635223E+01
  0.2680000E+01  0.2804690E+05 -0.1570797E+01  0.1598649E-02 -0.2838708E+01  0.1397285E+02  0.2446407E-05  0.3871119E-02  0.2503067E+01  0.4211846E+05  0.1570796E+01  0.9789968E-08  0.1618379E+01
  0.2720000E+01  0.9752845E+04 -0.1570796E+01  0.1452734E-02  0.9157411E+00  0.2378974E+00  0.2029436E-04  0.1576977E-01  0.3108499E+01  0.1405895E+05  0.1570794E+01  0.1250585E-07 -0.1065506E+01
  0.2760000E+01  0.7238729E+04  0.1570796E+01  0.2240968E-02  0.3492073E+00  0.8067270E+01  0.3141591E+01  0.7743421E-02 -0.1059125E+01  0.1091216E+05 -0.1570796E+01  0.2310778E-08 -0.7140907E+00
  0.2800000E+01  0.2282937E+05  0.1570796E+01  0.1973747E-02 -0.5042827E+00  0.1255770E+02  0.3141592E+01  0.2470084E-01  0.3115776E+01  0.3284988E+05 -0.1570796E+01  0.1454633E-07 -0.1788597E+01
  0.2840000E+01  0.3693138E+05  0.1570796E+01  0.4585204E-02  0.3199089E+00  0.1445216E+02  0.3141592E+01  0.1621521E-01  0.3131067E+01  0.5182198E+05 -0.1570796E+01  0.9092327E-08  0.1622033E+01
  0.2880000E+01  0.4947016E+05  0.1570796E+01  0.4352421E-02 -0.3173160E+00  0.1465408E+02  0.3141592E+01  0.2560099E-02  0.2568938E+01  0.6790965E+05 -0.1570796E+01  0.1483005E-07 -0.1184459E+01
  0.2920000E+01  0.6038504E+05  0.1570796E+01  0.5099227E-02 -0.2919840E+01  0.1381929E+02  0.3141592E+01  0.1276435E-01 -0.3118026E+01  0.8120698E+05 -0.1570796E+01  0.3958549E-08  0.1225794E+01
  0.2960000E+01  0.6963092E+05  0.1570796E+01  0.4213920E-02 -0.3107186E+01  0.1241217E+02  0.3141592E+01  0.8196289E-03 -0.2428218E+01  0.9182017E+05 -0.1570796E+01  0.2571698E-08  0.1480136E+01
  0.3000000E+01  0.7717950E+05  0.1570796E+01  0.3488549E-02 -0.1404279E+00  0.1075120E+02  0.3141593E+01  0.7421647E-02  0.1025588E+00  0.9986864E+05 -0.1570796E+01  0.9810408E-08 -0.1650981E+01
  0.3040000E+01  0.8302021E+05  0.1570796E+01  0.2002372E-02 -0.3057670E+01  0.9046055E+01  0.3141592E+01  0.2672778E-01  0.2479151E-01  0.1054833E+06 -0.1570796E+01  0.6457197E-08  0.1340302E+01
  0.3080000E+01  0.8716152E+05  0.1570796E+01  0.8452423E-02  0.3087409E+01  0.7426633E+01  0.3141592E+01  0.9614473E-03  0.7377474E-01  0.1088075E+06 -0.1570796E+01  0.7658677E-08 -0.2800614E+01
  0.3120000E+01  0.8963076E+05  0.1570796E+01  0.1545381E-02  0.3067471E+01  0.5965997E+01  0.3141593E+01  0.2357771E-01 -0.3133621E+01  0.1099956E+06 -0.1570796E+01  0.3004891E-08  0.1020410E+01
  0.3160000E+01  0.9047541E+05  0.1570796E+01  0.2606228E-02  0.2630798E+01  0.4697853E+01  0.3141593E+01  0.1522154E-01 -0.3106249E+01  0.1092127E+06 -0.1570796E+01  0.1010821E-07  0.1868872E+01
  0.3200000E+01  0.8976180E+05  0.1570796E+01  0.2692109E-02  0.2670974E+01  0.3629813E+01  0.3141593E+01  0.1137725E-01  0.3082559E+01  0.1066335E+06 -0.1570796E+01  0.1679974E-08 -0.1325818E+01
  0.3240000E+01  0.8757637E+05  0.1570796E+01  0.1580321E-02 -0.3621604E-01  0.2753134E+01  0.3141592E+01  0.3715600E-02  0.3101725E+01  0.1024420E+06 -0.1570796E+01  0.5375313E-08 -0.8673834E-01
  0.3280000E+01  0.8402366E+05  0.1570796E+01  0.3445975E-02  0.3069575E+01  0.2049741E+01  0.3141592E+01  0.3707225E-02  0.2831110E+01  0.9682909E+05 -0.1570796E+01  0.6301500E-08  0.1366155E+01
  0.3320000E+01  0.7922582E+05  0.1570796E+01  0.4901997E-03  0.5123895E+00  0.1497088E+01  0.3141593E+01  0.1881990E-02 -0.4876556E-01  0.8999208E+05 -0.1570796E+01  0.3228296E-08  0.2018316E+01
  0.3360000E+01  0.7332110E+05  0.1570796E+01  0.2792369E-02  0.2732234E-02  0.1071471E+01  0.3141593E+01  0.7172613E-02 -0.6227348E-01  0.8213243E+05 -0.1570796E+01  0.1146558E-08  0.1989021E+01
  0.3400000E+01  0.6646208E+05  0.1570796E+01  0.3111989E-02 -0.2521140E+00  0.7500587E+00  0.3141592E+01  0.7126178E-02 -0.7342165E-01  0.7345459E+05 -0.1570796E+01  0.1692032E-08  0.1501940E+01
  0.3440000E+01  0.5881309E+05  0.1570796E+01  0.1092183E-02 -0.2577810E+01  0.5121120E+00  0.3141593E+01  0.1279955E-02  0.2433567E+01  0.6416311E+05 -0.1570796E+01  0.5680021E-08  0.1611799E+01
  0.3480000E+01  0.5054832E+05  0.1570796E+01  0.1058203E-02  0.1012293E+01  0.3395565E+00  0.3141592E+01  0.4534767E-03 -0.4857123E+00  0.5446120E+05 -0.1570796E+01  0.1582930E-07  0.1673941E+01
  0.3520000E+01  0.4184848E+05  0.1570796E+01  0.9106963E-03 -0.4198458E+00  0.2171622E+00  0.3141592E+01  0.1392039E-02 -0.2335820E+00  0.4454788E+05 -0.1570796E+01  0.2234160E-08 -0.2787396E+01
  0.3560000E+01  0.3289784E+05  0.1570796E+01  0.1156184E-02  0.2392283E-01  0.1324512E+00  0.3141593E+01  0.3543899E-03  0.2511392E+01  0.3461589E+05 -0.1570796E+01  0.2876572E-08 -0.4726971E+00
  0.3600000E+01  0.2388139E+05  0.1570796E+01  0.1795268E-02  0.1266517E+01  0.7545418E-01 -0.3141593E+01  0.2701347E-02  0.8483621E-01  0.2484948E+05 -0.1570796E+01  0.7495013E-08  0.1461854E+01
  0.3640000E+01  0.1498063E+05  0.1570797E+01  0.1102739E-02 -0.2730569E+01  0.3838585E-01  0.3141592E+01  0.2061917E-02 -0.2977108E+01  0.1542128E+05 -0.1570796E+01  0.1181544E-07 -0.1669485E+01
  0.3680000E+01  0.6370844E+04  0.1570798E+01  0.2884136E-03 -0.6964318E+00  0.1530464E-01  0.3141592E+01  0.1115350E-03  0.3128000E+00  0.6490689E+04 -0.1570796E+01  0.3368509E-08 -0.1397125E+01
  0.3720000E+01  0.1783095E+04 -0.1570796E+01  0.9212711E-03  0.2970998E+01  0.1773341E-02  0.3141591E+01  0.2781403E-02 -0.2804001E+01  0.1799133E+04  0.1570796E+01  0.2818117E-08  0.9025069E+00
  0.3760000E+01  0.9329298E+04 -0.1570796E+01  0.4030287E-03 -0.2466852E+01  0.5444721E-02  0.6735115E-06  0.1284687E-02 -0.3120810E+01  0.9322630E+04  0.1570796E+01  0.8265693E-08 -0.1563754E+01
  0.3800000E+01  0.1613258E+05 -0.1570796E+01  0.4388394E-03  0.2720721E+01  0.8654493E-02 -0.4136315E-06  0.1003998E-02  0.1834061E+00  0.1597417E+05  0.1570796E+01  0.5939749E-08  0.1600200E+01
  0.3840000E+01  0.2207730E+05 -0.1570796E+01  0.5343300E-03  0.1721908E+00  0.9453310E-02 -0.5018268E-06  0.2247929E-02  0.3010548E+01  0.2166970E+05  0.1570796E+01  0.6402843E-09  0.3141593E+01
  0.3880000E+01  0.2706959E+05 -0.1570796E+01  0.2585049E-02 -0.3061821E+01  0.8914124E-02 -0.1159044E-06  0.5138064E-02 -0.3122289E+01  0.2634747E+05  0.1570796E+01  0.2346426E-08  0.5191461E+00
  0.3920000E+01  0.3103977E+05 -0.1570796E+01  0.3230281E-03 -0.3117972E+01  0.7730957E-02 -0.2239927E-06  0.3584642E-02 -0.7669432E-01  0.2996963E+05  0.1570796E+01  0.2739321E-08  0.1358033E+01
  0.3960000E+01  0.3394375E+05 -0.1570796E+01  0.7245014E-03 -0.5299221E+00  0.6331155E-02 -0.4573938E-06  0.1192763E-02 -0.3132002E+01  0.3252201E+05  0.1570796E+01  0.2328306E-08 -0.1570796E+01
  0.4000000E+01  0.3576385E+05 -0.1570796E+01  0.1438938E-02  0.1142435E+00  0.4960000E-02 -0.4078057E-06  0.4887089E-02 -0.3115832E+01  0.3401427E+05  0.1570796E+01  0.1187565E-07  0.1585501E+01
  0.4040000E+01  0.3650934E+05 -0.1570796E+01  0.5802856E-03 -0.4930509E+00  0.3742951E-02 -0.6220510E-06  0.1412685E-02 -0.9329452E-01  0.3447946E+05  0.1570796E+01  0.1021623E-07 -0.1439374E+01
  0.4080000E+01  0.3621583E+05 -0.1570796E+01  0.1003490E-02  0.1526493E+00  0.2730092E-02 -0.3198115E-06  0.1240105E-02  0.2807824E+01  0.3397276E+05  0.1570796E+01  0.7575051E-08 -0.1524675E+01
  0.4120000E+01  0.3494433E+05 -0.1570796E+01  0.7088052E-04  0.1986288E+01  0.1926846E-02 -0.5362057E-06  0.1130370E-02 -0.2975469E+01  0.3256989E+05  0.1570796E+01  0.5072423E-08  0.1628204E+01
  0.4160000E+01  0.3277941E+05 -0.1570796E+01  0.1583214E-03  0.3129545E+01  0.1314733E-02 -0.8910015E-06  0.3175985E-02  0.7152700E-01  0.3036515E+05  0.1570796E+01  0.4981773E-08  0.2097189E+01
  0.4200000E+01  0.2982679E+05 -0.1570796E+01  0.2441704E-03 -0.5055811E+00  0.8645767E-03 -0.5470159E-06  0.5822856E-03  0.2674380E+01  0.2746872E+05  0.1570796E+01  0.1341620E-08 -0.3076468E+01
  0.4240000E+01  0.2621020E+05 -0.1570796E+01  0.1221299E-03  0.8960554E+00  0.5445699E-03 -0.9619865E-06  0.6928963E-03  0.3105799E+01  0.2400374E+05  0.1570796E+01  0.1165607E-08  0.3091634E+01
  0.4280000E+01  0.2206781E+05 -0.1570796E+01  0.1040815E-02 -0.3062941E+01  0.3247914E-03 -0.1254508E-05  0.1654669E-03 -0.1169927E+01  0.2010290E+05  0.1570796E+01  0.5552433E-08 -0.1206351E+01
  0.4320000E+01  0.1754828E+05 -0.1570796E+01  0.1325170E-03 -0.2558580E+01  0.1793640E-03 -0.1926853E-05  0.2466413E-03  0.2782029E+01  0.1590505E+05  0.1570796E+01  0.2500390E-08 -0.6947383E+00
  0.4360000E+01  0.1280588E+05 -0.1570796E+01  0.6994803E-03 -0.2838382E+01  0.8717972E-04 -0.3129724E-05  0.4105498E-03  0.2111866E+01  0.1155097E+05  0.1570796E+01  0.6885271E-08  0.1545432E+01
  0.4400000E+01  0.7996498E+04 -0.1570796E+01  0.4096362E-03  0.2110933E+00  0.3180812E-04 -0.4660685E-05  0.1184286E-03  0.1708835E+01  0.7179914E+04  0.1570796E+01  0.1905134E-08  0.2540879E+01
  0.4440000E+01  0.3272438E+04 -0.1570796E+01  0.4627355E-03  0.6509206E+00  0.9472597E-06 -0.1358587E-03  0.1084928E-02  0.3096747E+01  0.2925500E+04  0.1570796E+01  0.5600049E-08 -0.8148015E+00
  0.4480000E+01  0.1222011E+04  0.1570796E+01  0.3149610E-03 -0.2949370E+00  0.1428023E-04 -0.3141588E+01  0.7923158E-03  0.2780002E+00  0.1087947E+04 -0.1570796E+01  0.2050530E-08  0.2537843E+01
  0.4520000E+01  0.5355024E+04  0.1570797E+01  0.5528186E-03  0.2978713E+01  0.2005351E-04 -0.3141590E+01  0.4270088E-03 -0.3133075E+00  0.4748863E+04 -0.1570797E+01  0.4089477E-08 -0.1485291E+01
  0.4560000E+01  0.9011109E+04  0.1570796E+01  0.1160121E-02  0.3113639E+01  0.2051243E-04 -0.3141591E+01  0.9017932E-03  0.3090809E+01  0.7961391E+04 -0.1570796E+01  0.3311192E-08 -0.1747505E+01
  0.4600000E+01  0.1209478E+05  0.1570796E+01  0.2791974E-03 -0.8712472E+00  0.1831367E-04 -0.3141591E+01  0.3296042E-03 -0.3981510E+00  0.1064818E+05 -0.1570796E+01  0.3703855E-08 -0.2097739E+01
  0.4640000E+01  0.1453319E+05  0.1570796E+01  0.3619650E-03  0.3020097E+01  0.1507416E-04 -0.3141591E+01  0.8982113E-03  0.3099110E+01  0.1275221E+05 -0.1570796E+01  0.4645738E-08 -0.1260437E+01
  0.4680000E+01  0.1627827E+05  0.1570796E+01  0.1552572E-02 -0.3086282E+01  0.1170990E-04 -0.3141592E+01  0.2741362E-03  0.3257852E+00  0.1423828E+05 -0.1570796E+01  0.3480502E-08 -0.8519663E+00
  0.4720000E+01  0.1730779E+05  0.1570796E+01  0.4340266E-03  0.2197448E-01  0.8684548E-05 -0.3141592E+01  0.5241350E-03  0.1977954E+00  0.1509348E+05 -0.1570796E+01  0.3950088E-08 -0.1862253E+01
  0.4760000E+01  0.1762563E+05  0.1570796E+01  0.1496266E-03  0.2949197E+01  0.6184690E-05 -0.3141592E+01  0.1739282E-03 -0.2023571E+01  0.1532712E+05 -0.1570796E+01  0.3616963E-08  0.1890002E+01
  0.4800000E+01  0.1726101E+05  0.1570796E+01  0.2195523E-03  0.2814348E+01  0.4238874E-05 -0.3141592E+01  0.5028563E-03 -0.1140379E+00  0.1496989E+05 -0.1570796E+01  0.2305089E-08 -0.2000559E+01
  0.4840000E+01  0.1626692E+05  0.1570796E+01  0.4134956E-03 -0.8543964E-01  0.2794724E-05 -0.3141592E+01  0.4747199E-03  0.3616845E-01  0.1407208E+05 -0.1570796E+01  0.2368880E-08 -0.1112643E+01
  0.4880000E+01  0.1471751E+05  0.1570796E+01  0.1856312E-03 -0.1735945E+01  0.1766583E-05 -0.3141592E+01  0.4141357E-03 -0.3063217E+01  0.1270132E+05 -0.1570796E+01  0.3100480E-08 -0.1740575E+01
  0.4920000E+01  0.1270486E+05  0.1570796E+01  0.5419541E-03  0.2933326E+01  0.1062811E-05 -0.3141592E+01  0.7605710E-04 -0.1307347E+01  0.1093971E+05 -0.1570796E+01  0.1119647E-08  0.2057696E+01
  0.4960000E+01  0.1033490E+05  0.1570796E+01  0.7544969E-04  0.2557534E+01  0.5998845E-06 -0.3141592E+01  0.1426177E-03  0.1168692E+00  0.8880111E+04 -0.1570796E+01  0.3211528E-08 -0.1017360E+01
  0.5000000E+01  0.7722936E+04  0.1570796E+01  0.1809698E-03 -0.1560256E+01  0.3083075E-06 -0.3141591E+01  0.3480126E-04  0.7641684E+00  0.6622536E+04 -0.1570796E+01  0.2114702E-08 -0.7732333E+00
  0.5040000E+01  0.4988869E+04  0.1570796E+01  0.2943383E-03  0.2371203E+00  0.1338305E-06 -0.3141591E+01  0.7155869E-04 -0.2037803E+01  0.4269971E+04 -0.1570797E+01  0.5508626E-09  0.1357858E+01
  0.5080000E+01  0.2252236E+04  0.1570797E+01  0.2460997E-03 -0.2810039E+01  0.3616716E-07 -0.3141589E+01  0.3897885E-03 -0.3004148E+01  0.1924269E+04 -0.1570797E+01  0.8500112E-09 -0.2234843E+01
  0.5120000E+01  0.3728460E+03 -0.1570798E+01  0.3111449E-03  0.3101737E+01  0.1331770E-07 -0.9336818E-06  0.1191266E-03  0.6143164E+00  0.3180201E+03  0.1570796E+01  0.4201045E-08 -0.1640129E+01
  0.5160000E+01  0.2782035E+04 -0.1570796E+01  0.5489222E-04  0.3002153E+01  0.3414923E-07 -0.1287433E-05  0.4171989E-03  0.1053461E+00  0.2369224E+04  0.1570797E+01  0.2690491E-08 -0.1844638E+01
  0.5200000E+01  0.4885085E+04 -0.1570796E+01  0.2234530E-03 -0.2325569E+00  0.3909467E-07 -0.2158272E-06  0.5928208E-04  0.1642955E+01  0.4154083E+04  0.1570796E+01  0.2745650E-08  0.1655698E+01
  0.5240000E+01  0.6609223E+04 -0.1570796E+01  0.4853970E-04  0.9705328E+00  0.3612353E-07 -0.3688089E-06  0.2602337E-03  0.2882164E+01  0.5612438E+04  0.1570796E+01  0.9631785E-09  0.1495183E+01
  0.5280000E+01  0.7901741E+04 -0.1570796E+01  0.1336829E-03  0.2799678E+01  0.2994177E-07 -0.7415882E-08  0.2900516E-04  0.1651470E+00  0.6701304E+04  0.1570796E+01  0.3620008E-08  0.1102654E+01
  0.5320000E+01  0.8731720E+04 -0.1570796E+01  0.2637733E-04  0.2922924E+01  0.2313025E-07  0.2399937E-06  0.2590673E-03 -0.3108456E+01  0.7396168E+04  0.1570796E+01  0.7328518E-09 -0.1990029E+01
  0.5360000E+01  0.9090721E+04 -0.1570796E+01  0.1981555E-03 -0.3080528E+00  0.1695007E-07  0.2071425E-06  0.6635785E-04  0.1297086E+00  0.7691471E+04  0.1570796E+01  0.1020296E-08 -0.1513716E+01
  0.5400000E+01  0.8992342E+04 -0.1570796E+01  0.8497875E-04 -0.1413028E+01  0.1188969E-07  0.3319259E-06  0.3227449E-04  0.1794365E+01  0.7600095E+04  0.1570796E+01  0.1095944E-08 -0.1757776E+01
  0.5440000E+01  0.8470867E+04 -0.1570796E+01  0.1977995E-03  0.3078873E+01  0.8019048E-08  0.2773291E-06  0.1646934E-03 -0.2337469E+00  0.7152189E+04  0.1570796E+01  0.5660302E-09  0.1884417E+01
  0.5480000E+01  0.7578870E+04 -0.1570796E+01  0.2193969E-04 -0.2173571E-01  0.5208148E-08  0.3304141E-06  0.4096563E-04  0.2930510E+01  0.6393058E+04  0.1570796E+01  0.2439345E-08  0.1267911E+01
  0.5520000E+01  0.6384041E+04 -0.1570796E+01  0.1643327E-03 -0.3017957E+01  0.3254098E-08  0.5629419E-06  0.7632560E-04  0.3113476E+01  0.5380454E+04  0.1570796E+01  0.1275598E-08 -0.1096945E+01
  0.5560000E+01  0.4965327E+04 -0.1570796E+01  0.6221286E-04 -0.3056701E+01  0.1948614E-08  0.5555063E-06  0.2942775E-04  0.2193665E+01  0.4181338E+04  0.1570796E+01  0.2085332E-08  0.2538227E+01
  0.5600000E+01  0.3408633E+04 -0.1570796E+01  0.7031085E-04  0.2372979E+01  0.1109628E-08  0.6878689E-06  0.1737738E-03  0.3026088E+01  0.2868240E+04  0.1570796E+01  0.3033516E-08  0.2594180E+01
  0.5640000E+01  0.1802182E+04 -0.1570796E+01  0.4862804E-04 -0.1768192E+01  0.5917986E-09  0.9321449E-06  0.1497282E-03  0.3138408E+01  0.1515388E+04  0.1570796E+01  0.1829437E-08  0.1018099E+01
  0.5680000E+01  0.2319905E+03 -0.1570800E+01  0.7107273E-04 -0.2026587E+00  0.2863351E-09  0.1338900E-05  0.7870738E-04  0.2983417E+01  0.1949427E+03  0.1570793E+01  0.6917901E-09  0.2551824E+00
  0.5720000E+01  0.1222502E+04  0.1570797E+01  0.3158664E-04  0.5041659E+00  0.1157854E-09  0.9963184E-06  0.6376422E-04  0.4736820E+00  0.1026634E+04 -0.1570796E+01  0.2578606E-09  0.1284745E+01
  0.5760000E+01  0.2492291E+04  0.1570796E+01  0.8755417E-04  0.6560277E+00  0.2738416E-10  0.7696744E-05  0.1348772E-05 -0.2356248E+01  0.2091769E+04 -0.1570796E+01  0.1980678E-08 -0.1530377E+01
  0.5800000E+01  0.3522074E+04  0.1570796E+01  0.3961923E-03  0.7951806E-01  0.1337442E-10  0.3141585E+01  0.1435564E-03  0.1993093E-01  0.2954471E+04 -0.1570796E+01  0.1951097E-08  0.1960998E+01
  0.5840000E+01  0.4272597E+04  0.1570796E+01  0.2118388E-03  0.6306820E-01  0.2813394E-10  0.3141591E+01  0.2308752E-03 -0.3079592E+01  0.3582247E+04 -0.1570796E+01  0.2144325E-09 -0.2567707E+01
  0.5880000E+01  0.4722132E+04  0.1570796E+01  0.1449979E-03  0.1919135E+00  0.2987525E-10  0.3141591E+01  0.2604440E-04  0.2027817E+00  0.3957300E+04 -0.1570796E+01  0.3283062E-09 -0.2234766E+00
  0.5920000E+01  0.4866886E+04  0.1570796E+01  0.1310261E-03 -0.1424117E+00  0.2598222E-10  0.3141592E+01  0.1417009E-03  0.3365732E-01  0.4076842E+04 -0.1570796E+01  0.1797029E-08  0.1943784E+01
  0.5960000E+01  0.4720426E+04  0.1570796E+01  0.8113661E-04  0.1593516E+00  0.2037697E-10  0.3141592E+01  0.6990667E-04 -0.6353158E+00  0.3952564E+04 -0.1570796E+01  0.7876875E-09 -0.2046418E+00
  0.6000000E+01  0.4312099E+04  0.1570796E+01  0.2718390E-04 -0.1837048E+01  0.1494106E-10  0.3141592E+01  0.7284380E-04  0.2801211E+01  0.3609312E+04 -0.1570796E+01  0.1104892E-08  0.1796608E+01
  0.6039999E+01  0.3684645E+04  0.1570796E+01  0.5361185E-04  0.2349905E+01  0.1042053E-10  0.3141592E+01  0.1840346E-04  0.2965795E+01  0.3083052E+04 -0.1570796E+01  0.3794675E-09  0.2137526E+01