 VARIABLES="Time (s)"
"AddedMass    1" "IRF    1"
"AddedMass    2" "IRF    2"
"AddedMass    3" "IRF    3"
"AddedMass    4" "IRF    4"
"AddedMass    5" "IRF    5"
"AddedMass    6" "IRF    6"
Zone t="DoF    1",I=   100,F=POINT
  0.0000000E+00  0.3800982E+06  0.4872693E+06 -0.1133695E-03 -0.3291151E-03  0.4535891E-01  0.2396588E-01  0.6020044E-04 -0.5012035E-03 -0.1955737E+07 -0.1287991E+07 -0.1456775E-09  0.4178061E-08
  0.1000000E+00  0.3800982E+06  0.4775054E+06 -0.1133695E-03 -0.3238687E-03  0.4535891E-01  0.2382536E-01  0.6020044E-04 -0.4930029E-03 -0.1955737E+07 -0.1268830E+07 -0.1456775E-09  0.4141929E-08
  0.2000000E+00  0.3800982E+06  0.4489176E+06 -0.1133695E-03 -0.3084662E-03  0.4535891E-01  0.2340063E-01  0.6020044E-04 -0.4681609E-03 -0.1955737E+07 -0.1212303E+07 -0.1456775E-09  0.4035578E-08
  0.3000000E+00  0.3800982E+06  0.4035337E+06 -0.1133695E-03 -0.2838603E-03  0.4535891E-01  0.2268295E-01  0.6020044E-04 -0.4260763E-03 -0.1955737E+07 -0.1121196E+07 -0.1456775E-09  0.3864461E-08
  0.4000000E+00  0.3800982E+06  0.3444693E+06 -0.1133695E-03 -0.2514734E-03  0.4535891E-01  0.2166072E-01  0.6020044E-04 -0.3661216E-03 -0.1955737E+07 -0.9998773E+06 -0.1456775E-09  0.3635767E-08
  0.5000000E+00  0.3800982E+06  0.2755742E+06 -0.1133695E-03 -0.2130249E-03  0.4535891E-01  0.2032401E-01  0.6020044E-04 -0.2881543E-03 -0.1955737E+07 -0.8539246E+06 -0.1456775E-09  0.3356522E-08
  0.6000000E+00  0.3800982E+06  0.2010151E+06 -0.1133695E-03 -0.1703968E-03  0.4535891E-01  0.1867056E-01  0.6020044E-04 -0.1931102E-03 -0.1955737E+07 -0.6896828E+06 -0.1456775E-09  0.3032289E-08
  0.7000000E+00  0.3800982E+06  0.1248677E+06 -0.1133695E-03 -0.1255720E-03  0.4535891E-01  0.1671201E-01  0.6020044E-04 -0.8352526E-04 -0.1955737E+07 -0.5138040E+06 -0.1456775E-09  0.2666916E-08
  0.8000000E+00  0.3800982E+06  0.5076627E+05 -0.1133695E-03 -0.8062389E-04  0.4535891E-01  0.1447777E-01  0.6020044E-04  0.3617622E-04 -0.1955737E+07 -0.3328262E+06 -0.1456775E-09  0.2263178E-08
  0.9000000E+00  0.3800982E+06 -0.1833786E+05 -0.1133695E-03 -0.3769742E-04  0.4535891E-01  0.1201500E-01  0.6020044E-04  0.1597475E-03 -0.1955737E+07 -0.1528320E+06 -0.1456775E-09  0.1823768E-08
  0.1000000E+01  0.3800982E+06 -0.8029148E+05 -0.1133695E-03  0.1089581E-05  0.4535891E-01  0.9384108E-02  0.6020044E-04  0.2795727E-03 -0.1955737E+07  0.2079067E+05 -0.1456775E-09  0.1352045E-08
  0.1100000E+01  0.3800982E+06 -0.1337369E+06 -0.1133695E-03  0.3386062E-04  0.4535891E-01  0.6650765E-02  0.6020044E-04  0.3874233E-03 -0.1955737E+07  0.1834966E+06 -0.1456775E-09  0.8522250E-09
  0.1200000E+01  0.3800982E+06 -0.1780172E+06 -0.1133695E-03  0.5928176E-04  0.4535891E-01  0.3877184E-02  0.6020044E-04  0.4753642E-03 -0.1955737E+07  0.3316363E+06 -0.1456775E-09  0.3291833E-09
  0.1300000E+01  0.3800982E+06 -0.2130314E+06 -0.1133695E-03  0.7686545E-04  0.4535891E-01  0.1115424E-02  0.6020044E-04  0.5366483E-03 -0.1955737E+07  0.4624475E+06 -0.1456775E-09 -0.2117801E-09
  0.1400000E+01  0.3800982E+06 -0.2390772E+06 -0.1133695E-03  0.8715979E-04  0.4535891E-01 -0.1595462E-02  0.6020044E-04  0.5664693E-03 -0.1955737E+07  0.5740052E+06 -0.1456775E-09 -0.7648308E-09
  0.1500000E+01  0.3800982E+06 -0.2567087E+06 -0.1133695E-03  0.9173090E-04  0.4535891E-01 -0.4228287E-02  0.6020044E-04  0.5625024E-03 -0.1955737E+07  0.6651457E+06 -0.1456775E-09 -0.1323119E-08
  0.1600000E+01  0.3800982E+06 -0.2666263E+06 -0.1133695E-03  0.9290723E-04  0.4535891E-01 -0.6763865E-02  0.6020044E-04  0.5251830E-03 -0.1955737E+07  0.7353811E+06 -0.1456775E-09 -0.1878205E-08
  0.1700000E+01  0.3800982E+06 -0.2696017E+06 -0.1133695E-03  0.9333617E-04  0.4535891E-01 -0.9186415E-02  0.6020044E-04  0.4576705E-03 -0.1955737E+07  0.7848110E+06 -0.1456775E-09 -0.2419859E-08
  0.1800000E+01  0.3800982E+06 -0.2664332E+06 -0.1133695E-03  0.9546483E-04  0.4535891E-01 -0.1147961E-01  0.6020044E-04  0.3654461E-03 -0.1955737E+07  0.8140391E+06 -0.1456775E-09 -0.2936462E-08
  0.1900000E+01  0.3800982E+06 -0.2579196E+06 -0.1133695E-03  0.1010766E-03  0.4535891E-01 -0.1362423E-01  0.6020044E-04  0.2555457E-03 -0.1955737E+07  0.8240940E+06 -0.1456775E-09 -0.3416005E-08
  0.2000000E+01  0.3800982E+06 -0.2448501E+06 -0.1133695E-03  0.1109914E-03  0.4535891E-01 -0.1559716E-01  0.6020044E-04  0.1355151E-03 -0.1955737E+07  0.8163569E+06 -0.1456775E-09 -0.3847214E-08
  0.2100000E+01  0.3800982E+06 -0.2279966E+06 -0.1133695E-03  0.1249767E-03  0.4535891E-01 -0.1737168E-01  0.6020044E-04  0.1233651E-04 -0.1955737E+07  0.7924939E+06 -0.1456775E-09 -0.4220346E-08
  0.2200000E+01  0.3800982E+06 -0.2081091E+06 -0.1133695E-03  0.1418655E-03  0.4535891E-01 -0.1891876E-01  0.6020044E-04 -0.1083784E-03 -0.1955737E+07  0.7543869E+06 -0.1456775E-09 -0.4527268E-08
  0.2300000E+01  0.3800982E+06 -0.1859085E+06 -0.1133695E-03  0.1598232E-03  0.4535891E-01 -0.2020944E-01  0.6020044E-04 -0.2226434E-03 -0.1955737E+07  0.7040687E+06 -0.1456775E-09 -0.4760838E-08
  0.2400000E+01  0.3800982E+06 -0.1620765E+06 -0.1133695E-03  0.1767000E-03  0.4535891E-01 -0.2121831E-01  0.6020044E-04 -0.3277089E-03 -0.1955737E+07  0.6436517E+06 -0.1456775E-09 -0.4913947E-08
  0.2500000E+01  0.3800982E+06 -0.1372474E+06 -0.1133695E-03  0.1904062E-03  0.4535891E-01 -0.2192722E-01  0.6020044E-04 -0.4211648E-03 -0.1955737E+07  0.5752714E+06 -0.1456775E-09 -0.4978700E-08
  0.2600000E+01  0.3800982E+06 -0.1120004E+06 -0.1133695E-03  0.1992538E-03  0.4535891E-01 -0.2232903E-01  0.6020044E-04 -0.4999258E-03 -0.1955737E+07  0.5010261E+06 -0.1456775E-09 -0.4946205E-08
  0.2700000E+01  0.3800982E+06 -0.8685894E+05 -0.1133695E-03  0.2022261E-03  0.4535891E-01 -0.2242926E-01  0.6020044E-04 -0.5595249E-03 -0.1955737E+07  0.4229422E+06 -0.1456775E-09 -0.4807097E-08
  0.2800000E+01  0.3800982E+06 -0.6229371E+05 -0.1133695E-03  0.1991342E-03  0.4535891E-01 -0.2224576E-01  0.6020044E-04 -0.5940868E-03 -0.1955737E+07  0.3429404E+06 -0.1456775E-09 -0.4552752E-08
  0.2900000E+01  0.3800982E+06 -0.3872790E+05 -0.1133695E-03  0.1906301E-03  0.4535891E-01 -0.2180642E-01  0.6020044E-04 -0.5970668E-03 -0.1955737E+07  0.2628191E+06 -0.1456775E-09 -0.4176910E-08
  0.3000000E+01  0.3800982E+06 -0.1653966E+05 -0.1133695E-03  0.1780716E-03  0.4535891E-01 -0.2114546E-01  0.6020044E-04 -0.5625715E-03 -0.1955737E+07  0.1842306E+06 -0.1456775E-09 -0.3677407E-08
  0.3100000E+01  0.3800982E+06  0.3941481E+04 -0.1133695E-03  0.1632552E-03  0.4535891E-01 -0.2029927E-01  0.6020044E-04 -0.4868485E-03 -0.1955737E+07  0.1086558E+06 -0.1456775E-09 -0.3057760E-08
  0.3200000E+01  0.3800982E+06  0.2244428E+05 -0.1133695E-03  0.1480756E-03  0.4535891E-01 -0.1930312E-01  0.6020044E-04 -0.3695147E-03 -0.1955737E+07  0.3737579E+05 -0.1456775E-09 -0.2328362E-08
  0.3300000E+01  0.3800982E+06  0.3876805E+05 -0.1133695E-03  0.1341779E-03  0.4535891E-01 -0.1818897E-01  0.6020044E-04 -0.2141833E-03 -0.1955737E+07 -0.2855693E+05 -0.1456775E-09 -0.1507053E-08
  0.3400000E+01  0.3800982E+06  0.5279162E+05 -0.1133695E-03  0.1226725E-03  0.4535891E-01 -0.1698374E-01  0.6020044E-04 -0.2840142E-04 -0.1955737E+07 -0.8833383E+05 -0.1456775E-09 -0.6188350E-09
  0.3500000E+01  0.3800982E+06  0.6447222E+05 -0.1133695E-03  0.1139641E-03  0.4535891E-01 -0.1570850E-01  0.6020044E-04  0.1770092E-03 -0.1955737E+07 -0.1413868E+06 -0.1456775E-09  0.3053731E-09
  0.3600000E+01  0.3800982E+06  0.7383502E+05 -0.1133695E-03  0.1077082E-03  0.4535891E-01 -0.1437765E-01  0.6020044E-04  0.3889787E-03 -0.1955737E+07 -0.1873657E+06 -0.1456775E-09  0.1231002E-08
  0.3700000E+01  0.3800982E+06  0.8095358E+05 -0.1133695E-03  0.1028881E-03  0.4535891E-01 -0.1299876E-01  0.6020044E-04  0.5933474E-03 -0.1955737E+07 -0.2260979E+06 -0.1456775E-09  0.2122685E-08
  0.3800000E+01  0.3800982E+06  0.8592887E+05 -0.1133695E-03  0.9798624E-04  0.4535891E-01 -0.1157308E-01  0.6020044E-04  0.7760160E-03 -0.1955737E+07 -0.2575460E+06 -0.1456775E-09  0.2947248E-08
  0.3900000E+01  0.3800982E+06  0.8887351E+05 -0.1133695E-03  0.9122339E-04  0.4535891E-01 -0.1009729E-01  0.6020044E-04  0.9240084E-03 -0.1955737E+07 -0.2817708E+06 -0.1456775E-09  0.3676156E-08
  0.4000000E+01  0.3800982E+06  0.8990563E+05 -0.1133695E-03  0.8082969E-04  0.4535891E-01 -0.8566133E-02  0.6020044E-04  0.1026436E-02 -0.1955737E+07 -0.2989131E+06 -0.1456775E-09  0.4287000E-08
  0.4100000E+01  0.3800982E+06  0.8915261E+05 -0.1133695E-03  0.6531947E-04  0.4535891E-01 -0.6975756E-02  0.6020044E-04  0.1075324E-02 -0.1955737E+07 -0.3091922E+06 -0.1456775E-09  0.4763921E-08
  0.4200000E+01  0.3800982E+06  0.8676265E+05 -0.1133695E-03  0.4373209E-04  0.4535891E-01 -0.5326532E-02  0.6020044E-04  0.1066193E-02 -0.1955737E+07 -0.3129222E+06 -0.1456775E-09  0.5097196E-08
  0.4300000E+01  0.3800982E+06  0.8291509E+05 -0.1133695E-03  0.1580669E-04  0.4535891E-01 -0.3625023E-02  0.6020044E-04  0.9983082E-03 -0.1955737E+07 -0.3105320E+06 -0.1456775E-09  0.5282510E-08
  0.4400000E+01  0.3800982E+06  0.7782881E+05 -0.1133695E-03 -0.1793490E-04  0.4535891E-01 -0.1884340E-02  0.6020044E-04  0.8745131E-03 -0.1955737E+07 -0.3025778E+06 -0.1456775E-09  0.5320164E-08
  0.4500000E+01  0.3800982E+06  0.7176181E+05 -0.1133695E-03 -0.5620442E-04  0.4535891E-01 -0.1232732E-03  0.6020044E-04  0.7006708E-03 -0.1955737E+07 -0.2897451E+06 -0.1456775E-09  0.5214589E-08
  0.4600000E+01  0.3800982E+06  0.6500296E+05 -0.1133695E-03 -0.9705044E-04  0.4535891E-01  0.1635505E-02  0.6020044E-04  0.4848755E-03 -0.1955737E+07 -0.2728287E+06 -0.1456775E-09  0.4973882E-08
  0.4700000E+01  0.3800982E+06  0.5785755E+05 -0.1133695E-03 -0.1380313E-03  0.4535891E-01  0.3367468E-02  0.6020044E-04  0.2366148E-03 -0.1955737E+07 -0.2526994E+06 -0.1456775E-09  0.4609234E-08
  0.4800000E+01  0.3800982E+06  0.5062797E+05 -0.1133695E-03 -0.1764339E-03  0.4535891E-01  0.5048179E-02  0.6020044E-04 -0.3390916E-04 -0.1955737E+07 -0.2302586E+06 -0.1456775E-09  0.4134216E-08
  0.4900000E+01  0.3800982E+06  0.4359269E+05 -0.1133695E-03 -0.2095265E-03  0.4535891E-01  0.6655046E-02  0.6020044E-04 -0.3162400E-03 -0.1955737E+07 -0.2063901E+06 -0.1456775E-09  0.3563893E-08
  0.5000000E+01  0.3800982E+06  0.3698597E+05 -0.1133695E-03 -0.2348400E-03  0.4535891E-01  0.8168920E-02  0.6020044E-04 -0.5999200E-03 -0.1955737E+07 -0.1819177E+06 -0.1456775E-09  0.2914174E-08
  0.5100000E+01  0.3800982E+06  0.3097975E+05 -0.1133695E-03 -0.2504610E-03  0.4535891E-01  0.9575650E-02  0.6020044E-04 -0.8746718E-03 -0.1955737E+07 -0.1575698E+06 -0.1456775E-09  0.2201596E-08
  0.5200000E+01  0.3800982E+06  0.2567239E+05 -0.1133695E-03 -0.2553103E-03  0.4535891E-01  0.1086724E-01  0.6020044E-04 -0.1130611E-02 -0.1955737E+07 -0.1339564E+06 -0.1456775E-09  0.1443554E-08
  0.5300000E+01  0.3800982E+06  0.2108592E+05 -0.1133695E-03 -0.2493596E-03  0.4535891E-01  0.1204217E-01  0.6020044E-04 -0.1358540E-02 -0.1955737E+07 -0.1115553E+06 -0.1456775E-09  0.6588349E-09
  0.5400000E+01  0.3800982E+06  0.1717299E+05 -0.1133695E-03 -0.2337249E-03  0.4535891E-01  0.1310455E-01  0.6020044E-04 -0.1550292E-02 -0.1955737E+07 -0.9070770E+05 -0.1456775E-09 -0.1321764E-09
  0.5500000E+01  0.3800982E+06  0.1383283E+05 -0.1133695E-03 -0.2105894E-03  0.4535891E-01  0.1406164E-01  0.6020044E-04 -0.1699020E-02 -0.1955737E+07 -0.7162083E+05 -0.1456775E-09 -0.9077271E-09
  0.5600000E+01  0.3800982E+06  0.1092999E+05 -0.1133695E-03 -0.1829324E-03  0.4535891E-01  0.1492058E-01  0.6020044E-04 -0.1799348E-02 -0.1955737E+07 -0.5437277E+05 -0.1456775E-09 -0.1645582E-08
  0.5700000E+01  0.3800982E+06  0.8311570E+04 -0.1133695E-03 -0.1541008E-03  0.4535891E-01  0.1568512E-01  0.6020044E-04 -0.1847346E-02 -0.1955737E+07 -0.3891844E+05 -0.1456775E-09 -0.2324203E-08
  0.5800000E+01  0.3800982E+06  0.5816777E+04 -0.1133695E-03 -0.1272900E-03  0.4535891E-01  0.1635349E-01  0.6020044E-04 -0.1840377E-02 -0.1955737E+07 -0.2509240E+05 -0.1456775E-09 -0.2923791E-08
  0.5900000E+01  0.3800982E+06  0.3279261E+04 -0.1133695E-03 -0.1050420E-03  0.4535891E-01  0.1691823E-01  0.6020044E-04 -0.1776881E-02 -0.1955737E+07 -0.1261127E+05 -0.1456775E-09 -0.3426900E-08
  0.6000000E+01  0.3800982E+06  0.5266747E+03 -0.1133695E-03 -0.8887796E-04  0.4535891E-01  0.1736768E-01  0.6020044E-04 -0.1656214E-02 -0.1955737E+07 -0.1081937E+04 -0.1456775E-09 -0.3818583E-08
  0.6100000E+01  0.3800982E+06 -0.2613917E+04 -0.1133695E-03 -0.7914065E-04  0.4535891E-01  0.1768862E-01  0.6020044E-04 -0.1478594E-02 -0.1955737E+07  0.9974053E+04 -0.1456775E-09 -0.4086415E-08
  0.6200000E+01  0.3800982E+06 -0.6297235E+04 -0.1133695E-03 -0.7509192E-04  0.4535891E-01  0.1786851E-01  0.6020044E-04 -0.1245227E-02 -0.1955737E+07  0.2107044E+05 -0.1456775E-09 -0.4220778E-08
  0.6300000E+01  0.3800982E+06 -0.1062393E+05 -0.1133695E-03 -0.7522932E-04  0.4535891E-01  0.1789682E-01  0.6020044E-04 -0.9586322E-03 -0.1955737E+07  0.3267417E+05 -0.1456775E-09 -0.4215736E-08
  0.6400000E+01  0.3800982E+06 -0.1559455E+05 -0.1133695E-03 -0.7773410E-04  0.4535891E-01  0.1776507E-01  0.6020044E-04 -0.6231302E-03 -0.1955737E+07  0.4510133E+05 -0.1456775E-09 -0.4070289E-08
  0.6500000E+01  0.3800982E+06 -0.2106739E+05 -0.1133695E-03 -0.8092530E-04  0.4535891E-01  0.1746645E-01  0.6020044E-04 -0.2454179E-03 -0.1955737E+07  0.5841108E+05 -0.1456775E-09 -0.3789694E-08
  0.6600000E+01  0.3800982E+06 -0.2673695E+05 -0.1133695E-03 -0.8359378E-04  0.4535891E-01  0.1699591E-01  0.6020044E-04  0.1649618E-03 -0.1955737E+07  0.7232781E+05 -0.1456775E-09 -0.3386185E-08
  0.6700000E+01  0.3800982E+06 -0.3214790E+05 -0.1133695E-03 -0.8513155E-04  0.4535891E-01  0.1635189E-01  0.6020044E-04  0.5954563E-03 -0.1955737E+07  0.8622035E+05 -0.1456775E-09 -0.2878735E-08
  0.6800000E+01  0.3800982E+06 -0.3674820E+05 -0.1133695E-03 -0.8543404E-04  0.4535891E-01  0.1553941E-01  0.6020044E-04  0.1030845E-02 -0.1955737E+07  0.9915505E+05 -0.1456775E-09 -0.2291882E-08
  0.6900000E+01  0.3800982E+06 -0.3997372E+05 -0.1133695E-03 -0.8462981E-04  0.4535891E-01  0.1457396E-01  0.6020044E-04  0.1454162E-02 -0.1955737E+07  0.1100194E+06 -0.1456775E-09 -0.1653746E-08
  0.7000000E+01  0.3800982E+06 -0.4134489E+05 -0.1133695E-03 -0.8274226E-04  0.4535891E-01  0.1348392E-01  0.6020044E-04  0.1848072E-02 -0.1955737E+07  0.1176916E+06 -0.1456775E-09 -0.9937844E-09
  0.7100000E+01  0.3800982E+06 -0.4055318E+05 -0.1133695E-03 -0.7940586E-04  0.4535891E-01  0.1231048E-01  0.6020044E-04  0.2196415E-02 -0.1955737E+07  0.1212185E+06 -0.1456775E-09 -0.3406707E-09
  0.7200000E+01  0.3800982E+06 -0.3751877E+05 -0.1133695E-03 -0.7373362E-04  0.4535891E-01  0.1110348E-01  0.6020044E-04  0.2485605E-02 -0.1955737E+07  0.1199691E+06 -0.1456775E-09  0.2795365E-09
  0.7300000E+01  0.3800982E+06 -0.3240935E+05 -0.1133695E-03 -0.6437692E-04  0.4535891E-01  0.9914105E-02  0.6020044E-04  0.2705509E-02 -0.1955737E+07  0.1137345E+06 -0.1456775E-09  0.8447972E-09
  0.7400000E+01  0.3800982E+06 -0.2562126E+05 -0.1133695E-03 -0.4976555E-04  0.4535891E-01  0.8785740E-02  0.6020044E-04  0.2849770E-02 -0.1955737E+07  0.1027689E+06 -0.1456775E-09  0.1338110E-08
  0.7500000E+01  0.3800982E+06 -0.1773391E+05 -0.1133695E-03 -0.2844722E-04  0.4535891E-01  0.7746114E-02  0.6020044E-04  0.2915529E-02 -0.1955737E+07  0.8777827E+05 -0.1456775E-09  0.1748072E-08
  0.7600000E+01  0.3800982E+06 -0.9447454E+04 -0.1133695E-03  0.5555478E-06  0.4535891E-01  0.6802659E-02  0.6020044E-04  0.2902880E-02 -0.1955737E+07  0.6986636E+05 -0.1456775E-09  0.2068882E-08
  0.7700000E+01  0.3800982E+06 -0.1514428E+04 -0.1133695E-03  0.3747005E-04  0.4535891E-01  0.5942997E-02  0.6020044E-04  0.2814152E-02 -0.1955737E+07  0.5044730E+05 -0.1456775E-09  0.2299752E-08
  0.7800000E+01  0.3800982E+06  0.5332141E+04 -0.1133695E-03  0.8163647E-04  0.4535891E-01  0.5140135E-02  0.6020044E-04  0.2653344E-02 -0.1955737E+07  0.3112719E+05 -0.1456775E-09  0.2443733E-08
  0.7900000E+01  0.3800982E+06  0.1045319E+05 -0.1133695E-03  0.1315356E-03  0.4535891E-01  0.4360843E-02  0.6020044E-04  0.2425647E-02 -0.1955737E+07  0.1355007E+05 -0.1456775E-09  0.2506344E-08
  0.8000000E+01  0.3800982E+06  0.1338037E+05 -0.1133695E-03  0.1849497E-03  0.4535891E-01  0.3574629E-02  0.6020044E-04  0.2137156E-02 -0.1955737E+07 -0.7886051E+03 -0.1456775E-09  0.2494276E-08
  0.8100000E+01  0.3800982E+06  0.1388845E+05 -0.1133695E-03  0.2392119E-03  0.4535891E-01  0.2760740E-02  0.6020044E-04  0.1794671E-02 -0.1955737E+07 -0.1074669E+05 -0.1456775E-09  0.2414612E-08
  0.8200000E+01  0.3800982E+06  0.1205078E+05 -0.1133695E-03  0.2914670E-03  0.4535891E-01  0.1911662E-02  0.6020044E-04  0.1405638E-02 -0.1955737E+07 -0.1572594E+05 -0.1456775E-09  0.2274690E-08
  0.8300000E+01  0.3800982E+06  0.8260260E+04 -0.1133695E-03  0.3388850E-03  0.4535891E-01  0.1032672E-02  0.6020044E-04  0.9781589E-03 -0.1955737E+07 -0.1580464E+05 -0.1456775E-09  0.2082478E-08
  0.8400001E+01  0.3800982E+06  0.3199505E+04 -0.1133695E-03  0.3787843E-03  0.4535891E-01  0.1384198E-03  0.6020044E-04  0.5211312E-03 -0.1955737E+07 -0.1176811E+05 -0.1456775E-09  0.1847051E-08
  0.8500000E+01  0.3800982E+06 -0.2246762E+04 -0.1133695E-03  0.4086661E-03  0.4535891E-01 -0.7520706E-03  0.6020044E-04  0.4439393E-04 -0.1955737E+07 -0.5009812E+04 -0.1456775E-09  0.1578780E-08
  0.8600000E+01  0.3800982E+06 -0.7129467E+04 -0.1133695E-03  0.4262051E-03  0.4535891E-01 -0.1620508E-02  0.6020044E-04 -0.4412349E-03 -0.1955737E+07  0.2693628E+04 -0.1456775E-09  0.1288932E-08
  0.8700000E+01  0.3800982E+06 -0.1059916E+05 -0.1133695E-03  0.4292405E-03  0.4535891E-01 -0.2453356E-02  0.6020044E-04 -0.9240695E-03 -0.1955737E+07  0.9498062E+04 -0.1456775E-09  0.9887117E-09
  0.8800000E+01  0.3800982E+06 -0.1206375E+05 -0.1133695E-03  0.4158546E-03  0.4535891E-01 -0.3244498E-02  0.6020044E-04 -0.1391977E-02 -0.1955737E+07  0.1383525E+05 -0.1456775E-09  0.6880070E-09
  0.8900001E+01  0.3800982E+06 -0.1130204E+05 -0.1133695E-03  0.3845600E-03  0.4535891E-01 -0.3996193E-02  0.6020044E-04 -0.1832898E-02 -0.1955737E+07  0.1470777E+05 -0.1456775E-09  0.3943872E-09
  0.9000000E+01  0.3800982E+06 -0.8505734E+04 -0.1133695E-03  0.3346043E-03  0.4535891E-01 -0.4718651E-02  0.6020044E-04 -0.2235441E-02 -0.1955737E+07  0.1186820E+05 -0.1456775E-09  0.1126998E-09
  0.9100000E+01  0.3800982E+06 -0.4236859E+04 -0.1133695E-03  0.2663348E-03  0.4535891E-01 -0.5428254E-02  0.6020044E-04 -0.2589367E-02 -0.1955737E+07  0.5840971E+04 -0.1456775E-09 -0.1545263E-09
  0.9200000E+01  0.3800982E+06  0.6897062E+03 -0.1133695E-03  0.1815459E-03  0.4535891E-01 -0.6144433E-02  0.6020044E-04 -0.2885794E-02 -0.1955737E+07 -0.2214888E+04 -0.1456775E-09 -0.4059276E-09
  0.9300000E+01  0.3800982E+06  0.5375039E+04 -0.1133695E-03  0.8368243E-04  0.4535891E-01 -0.6885740E-02  0.6020044E-04 -0.3117307E-02 -0.1955737E+07 -0.1077371E+05 -0.1456775E-09 -0.6398613E-09
  0.9400001E+01  0.3800982E+06  0.9016646E+04 -0.1133695E-03 -0.2217161E-04  0.4535891E-01 -0.7665064E-02  0.6020044E-04 -0.3277921E-02 -0.1955737E+07 -0.1827428E+05 -0.1456775E-09 -0.8530437E-09
  0.9500000E+01  0.3800982E+06  0.1106454E+05 -0.1133695E-03 -0.1295902E-03  0.4535891E-01 -0.8485188E-02  0.6020044E-04 -0.3363153E-02 -0.1955737E+07 -0.2344737E+05 -0.1456775E-09 -0.1039793E-08
  0.9600000E+01  0.3800982E+06  0.1131962E+05 -0.1133695E-03 -0.2313730E-03  0.4535891E-01 -0.9335565E-02  0.6020044E-04 -0.3370182E-02 -0.1955737E+07 -0.2556655E+05 -0.1456775E-09 -0.1192128E-08
  0.9700000E+01  0.3800982E+06  0.9958873E+04 -0.1133695E-03 -0.3203071E-03  0.4535891E-01 -0.1019128E-01  0.6020044E-04 -0.3298098E-02 -0.1955737E+07 -0.2458030E+05 -0.1456775E-09 -0.1300756E-08
  0.9800000E+01  0.3800982E+06  0.7484264E+04 -0.1133695E-03 -0.3900280E-03  0.4535891E-01 -0.1101529E-01  0.6020044E-04 -0.3148068E-02 -0.1955737E+07 -0.2110189E+05 -0.1456775E-09 -0.1356828E-08
  0.9900001E+01  0.3800982E+06  0.4609078E+04 -0.1133695E-03 -0.4358070E-03  0.4535891E-01 -0.1176378E-01  0.6020044E-04 -0.2923355E-02 -0.1955737E+07 -0.1626586E+05 -0.1456775E-09 -0.1354032E-08
Zone t="DoF    2",I=   100,F=POINT
  0.0000000E+00  0.1057087E-04  0.7774669E-03  0.3800982E+06  0.4872692E+06  0.1279516E-04  0.1993084E-03  0.1955736E+07  0.1287990E+07 -0.6602214E-03 -0.9796985E-03 -0.3014007E-04 -0.3867429E-04
  0.1000000E+00  0.1057087E-04  0.7666481E-03  0.3800982E+06  0.4775052E+06  0.1279516E-04  0.1981559E-03  0.1955736E+07  0.1268829E+07 -0.6602214E-03 -0.9690075E-03 -0.3014007E-04 -0.3437568E-04
  0.2000000E+00  0.1057087E-04  0.7347211E-03  0.3800982E+06  0.4489173E+06  0.1279516E-04  0.1947092E-03  0.1955736E+07  0.1212302E+07 -0.6602214E-03 -0.9377106E-03 -0.3014007E-04 -0.2213668E-04
  0.3000000E+00  0.1057087E-04  0.6832306E-03  0.3800982E+06  0.4035335E+06  0.1279516E-04  0.1890059E-03  0.1955736E+07  0.1121195E+07 -0.6602214E-03 -0.8879870E-03 -0.3014007E-04 -0.3818525E-05
  0.4000000E+00  0.1057087E-04  0.6145971E-03  0.3800982E+06  0.3444691E+06  0.1279516E-04  0.1811149E-03  0.1955736E+07  0.9998762E+06 -0.6602214E-03 -0.8230217E-03 -0.3014007E-04  0.1782072E-04
  0.5000000E+00  0.1057087E-04  0.5319106E-03  0.3800982E+06  0.2755740E+06  0.1279516E-04  0.1711412E-03  0.1955736E+07  0.8539236E+06 -0.6602214E-03 -0.7464469E-03 -0.3014007E-04  0.3957876E-04
  0.6000000E+00  0.1057087E-04  0.4386798E-03  0.3800982E+06  0.2010148E+06  0.1279516E-04  0.1592260E-03  0.1955736E+07  0.6896819E+06 -0.6602214E-03 -0.6617393E-03 -0.3014007E-04  0.5832407E-04
  0.7000000E+00  0.1057087E-04  0.3385713E-03  0.3800982E+06  0.1248675E+06  0.1279516E-04  0.1455396E-03  0.1955736E+07  0.5138031E+06 -0.6602214E-03 -0.5717295E-03 -0.3014007E-04  0.7147876E-04
  0.8000000E+00  0.1057087E-04  0.2351760E-03  0.3800982E+06  0.5076600E+05  0.1279516E-04  0.1302730E-03  0.1955736E+07  0.3328252E+06 -0.6602214E-03 -0.4782820E-03 -0.3014007E-04  0.7738123E-04
  0.9000000E+00  0.1057087E-04  0.1318261E-03  0.3800982E+06 -0.1833805E+05  0.1279516E-04  0.1136306E-03  0.1955736E+07  0.1528315E+06 -0.6602214E-03 -0.3822117E-03 -0.3014007E-04  0.7546572E-04
  0.1000000E+01  0.1057087E-04  0.3148222E-04  0.3800982E+06 -0.8029166E+05  0.1279516E-04  0.9582876E-04  0.1955736E+07 -0.2079117E+05 -0.6602214E-03 -0.2834214E-03 -0.3014007E-04  0.6623918E-04
  0.1100000E+01  0.1057087E-04 -0.6331706E-04  0.3800982E+06 -0.1337370E+06  0.1279516E-04  0.7709670E-04  0.1955736E+07 -0.1834969E+06 -0.6602214E-03 -0.1812131E-03 -0.3014007E-04  0.5107995E-04
  0.1200000E+01  0.1057087E-04 -0.1504616E-03  0.3800982E+06 -0.1780172E+06  0.1279516E-04  0.5767585E-04  0.1955736E+07 -0.3316364E+06 -0.6602214E-03 -0.7471217E-04 -0.3014007E-04  0.3192112E-04
  0.1300000E+01  0.1057087E-04 -0.2282714E-03  0.3800982E+06 -0.2130314E+06  0.1279516E-04  0.3781503E-04  0.1955736E+07 -0.4624475E+06 -0.6602214E-03  0.3665475E-04 -0.3014007E-04  0.1089672E-04
  0.1400000E+01  0.1057087E-04 -0.2955253E-03  0.3800982E+06 -0.2390771E+06  0.1279516E-04  0.1775863E-04  0.1955736E+07 -0.5740051E+06 -0.6602214E-03  0.1527007E-03 -0.3014007E-04 -0.9974199E-05
  0.1500000E+01  0.1057087E-04 -0.3515419E-03  0.3800982E+06 -0.2567086E+06  0.1279516E-04 -0.2265766E-05  0.1955736E+07 -0.6651452E+06 -0.6602214E-03  0.2721110E-03 -0.3014007E-04 -0.2901681E-04
  0.1600000E+01  0.1057087E-04 -0.3962973E-03  0.3800982E+06 -0.2666262E+06  0.1279516E-04 -0.2205513E-04  0.1955736E+07 -0.7353805E+06 -0.6602214E-03  0.3922528E-03 -0.3014007E-04 -0.4502269E-04
  0.1700000E+01  0.1057087E-04 -0.4305356E-03  0.3800982E+06 -0.2696015E+06  0.1279516E-04 -0.4142927E-04  0.1955736E+07 -0.7848104E+06 -0.6602214E-03  0.5092357E-03 -0.3014007E-04 -0.5727524E-04
  0.1800000E+01  0.1057087E-04 -0.4557982E-03  0.3800982E+06 -0.2664330E+06  0.1279516E-04 -0.6022095E-04  0.1955736E+07 -0.8140384E+06 -0.6602214E-03  0.6182664E-03 -0.3014007E-04 -0.6550318E-04
  0.1900000E+01  0.1057087E-04 -0.4742983E-03  0.3800982E+06 -0.2579193E+06  0.1279516E-04 -0.7826539E-04  0.1955736E+07 -0.8240932E+06 -0.6602214E-03  0.7142386E-03 -0.3014007E-04 -0.6979372E-04
  0.2000000E+01  0.1057087E-04 -0.4886103E-03  0.3800982E+06 -0.2448498E+06  0.1279516E-04 -0.9539659E-04  0.1955736E+07 -0.8163559E+06 -0.6602214E-03  0.7924653E-03 -0.3014007E-04 -0.7049266E-04
  0.2100000E+01  0.1057087E-04 -0.5011848E-03  0.3800982E+06 -0.2279963E+06  0.1279516E-04 -0.1114562E-03  0.1955736E+07 -0.7924928E+06 -0.6602214E-03  0.8493598E-03 -0.3014007E-04 -0.6810843E-04
  0.2200000E+01  0.1057087E-04 -0.5137997E-03  0.3800982E+06 -0.2081088E+06  0.1279516E-04 -0.1263120E-03  0.1955736E+07 -0.7543860E+06 -0.6602214E-03  0.8829278E-03 -0.3014007E-04 -0.6323199E-04
  0.2300000E+01  0.1057087E-04 -0.5270682E-03  0.3800982E+06 -0.1859081E+06  0.1279516E-04 -0.1398764E-03  0.1955736E+07 -0.7040676E+06 -0.6602214E-03  0.8929671E-03 -0.3014007E-04 -0.5647560E-04
  0.2400000E+01  0.1057087E-04 -0.5401485E-03  0.3800982E+06 -0.1620761E+06  0.1279516E-04 -0.1521150E-03  0.1955736E+07 -0.6436506E+06 -0.6602214E-03  0.8809912E-03 -0.3014007E-04 -0.4842952E-04
  0.2500000E+01  0.1057087E-04 -0.5507408E-03  0.3800982E+06 -0.1372470E+06  0.1279516E-04 -0.1630367E-03  0.1955736E+07 -0.5752702E+06 -0.6602214E-03  0.8499451E-03 -0.3014007E-04 -0.3963473E-04
  0.2600000E+01  0.1057087E-04 -0.5553865E-03  0.3800982E+06 -0.1120001E+06  0.1279516E-04 -0.1726695E-03  0.1955736E+07 -0.5010249E+06 -0.6602214E-03  0.8038448E-03 -0.3014007E-04 -0.3056566E-04
  0.2700000E+01  0.1057087E-04 -0.5500012E-03  0.3800982E+06 -0.8685860E+05  0.1279516E-04 -0.1810271E-03  0.1955736E+07 -0.4229409E+06 -0.6602214E-03  0.7474020E-03 -0.3014007E-04 -0.2161936E-04
  0.2800000E+01  0.1057087E-04 -0.5305399E-03  0.3800982E+06 -0.6229341E+05  0.1279516E-04 -0.1880839E-03  0.1955736E+07 -0.3429393E+06 -0.6602214E-03  0.6856559E-03 -0.3014007E-04 -0.1310788E-04
  0.2900000E+01  0.1057087E-04 -0.4936720E-03  0.3800982E+06 -0.3872764E+05  0.1279516E-04 -0.1937623E-03  0.1955736E+07 -0.2628181E+06 -0.6602214E-03  0.6235857E-03 -0.3014007E-04 -0.5254868E-05
  0.3000000E+01  0.1057087E-04 -0.4373626E-03  0.3800982E+06 -0.1653947E+05  0.1279516E-04 -0.1979360E-03  0.1955736E+07 -0.1842298E+06 -0.6602214E-03  0.5656895E-03 -0.3014007E-04  0.1801922E-05
  0.3100000E+01  0.1057087E-04 -0.3612953E-03  0.3800982E+06  0.3941603E+04  0.1279516E-04 -0.2004443E-03  0.1955736E+07 -0.1086552E+06 -0.6602214E-03  0.5155354E-03 -0.3014007E-04  0.7999951E-05
  0.3200000E+01  0.1057087E-04 -0.2670907E-03  0.3800982E+06  0.2244434E+05  0.1279516E-04 -0.2011075E-03  0.1955736E+07 -0.3737533E+05 -0.6602214E-03  0.4753578E-03 -0.3014007E-04  0.1333279E-04
  0.3300000E+01  0.1057087E-04 -0.1582849E-03  0.3800982E+06  0.3876810E+05  0.1279516E-04 -0.1997428E-03  0.1955736E+07  0.2855719E+05 -0.6602214E-03  0.4457983E-03 -0.3014007E-04  0.1782709E-04
  0.3400000E+01  0.1057087E-04 -0.4005537E-04  0.3800982E+06  0.5279155E+05  0.1279516E-04 -0.1961729E-03  0.1955736E+07  0.8833387E+05 -0.6602214E-03  0.4258321E-03 -0.3014007E-04  0.2152103E-04
  0.3500000E+01  0.1057087E-04  0.8127945E-04  0.3800982E+06  0.6447211E+05  0.1279516E-04 -0.1902394E-03  0.1955736E+07  0.1413867E+06 -0.6602214E-03  0.4128923E-03 -0.3014007E-04  0.2445018E-04
  0.3600000E+01  0.1057087E-04  0.1989356E-03  0.3800982E+06  0.7383488E+05  0.1279516E-04 -0.1818175E-03  0.1955736E+07  0.1873655E+06 -0.6602214E-03  0.4031306E-03 -0.3014007E-04  0.2664361E-04
  0.3700000E+01  0.1057087E-04  0.3063942E-03  0.3800982E+06  0.8095340E+05  0.1279516E-04 -0.1708371E-03  0.1955736E+07  0.2260975E+06 -0.6602214E-03  0.3917458E-03 -0.3014007E-04  0.2812771E-04
  0.3800000E+01  0.1057087E-04  0.3980768E-03  0.3800982E+06  0.8592862E+05  0.1279516E-04 -0.1573007E-03  0.1955736E+07  0.2575455E+06 -0.6602214E-03  0.3733658E-03 -0.3014007E-04  0.2893335E-04
  0.3900000E+01  0.1057087E-04  0.4698421E-03  0.3800982E+06  0.8887326E+05  0.1279516E-04 -0.1412928E-03  0.1955736E+07  0.2817702E+06 -0.6602214E-03  0.3424945E-03 -0.3014007E-04  0.2910007E-04
  0.4000000E+01  0.1057087E-04  0.5192615E-03  0.3800982E+06  0.8990544E+05  0.1279516E-04 -0.1229754E-03  0.1955736E+07  0.2989125E+06 -0.6602214E-03  0.2940827E-03 -0.3014007E-04  0.2867539E-04
  0.4100000E+01  0.1057087E-04  0.5456692E-03  0.3800982E+06  0.8915237E+05  0.1279516E-04 -0.1025682E-03  0.1955736E+07  0.3091913E+06 -0.6602214E-03  0.2241992E-03 -0.3014007E-04  0.2770962E-04
  0.4200000E+01  0.1057087E-04  0.5500425E-03  0.3800982E+06  0.8676246E+05  0.1279516E-04 -0.8032070E-04  0.1955736E+07  0.3129214E+06 -0.6602214E-03  0.1307131E-03 -0.3014007E-04  0.2624971E-04
  0.4300000E+01  0.1057087E-04  0.5347805E-03  0.3800982E+06  0.8291488E+05  0.1279516E-04 -0.5649156E-04  0.1955736E+07  0.3105311E+06 -0.6602214E-03  0.1378901E-04 -0.3014007E-04  0.2433634E-04
  0.4400000E+01  0.1057087E-04  0.5034226E-03  0.3800982E+06  0.7782864E+05  0.1279516E-04 -0.3133603E-04  0.1955736E+07  0.3025770E+06 -0.6602214E-03 -0.1240155E-03 -0.3014007E-04  0.2200468E-04
  0.4500000E+01  0.1057087E-04  0.4603336E-03  0.3800982E+06  0.7176165E+05  0.1279516E-04 -0.5112452E-05  0.1955736E+07  0.2897443E+06 -0.6602214E-03 -0.2781345E-03 -0.3014007E-04  0.1928863E-04
  0.4600000E+01  0.1057087E-04  0.4103562E-03  0.3800982E+06  0.6500287E+05  0.1279516E-04  0.2190167E-04  0.1955736E+07  0.2728279E+06 -0.6602214E-03 -0.4427936E-03 -0.3014007E-04  0.1622473E-04
  0.4700000E+01  0.1057087E-04  0.3584299E-03  0.3800982E+06  0.5785744E+05  0.1279516E-04  0.4938956E-04  0.1955736E+07  0.2526988E+06 -0.6602214E-03 -0.6119523E-03 -0.3014007E-04  0.1285521E-04
  0.4800000E+01  0.1057087E-04  0.3092008E-03  0.3800982E+06  0.5062789E+05  0.1279516E-04  0.7698080E-04  0.1955736E+07  0.2302581E+06 -0.6602214E-03 -0.7800525E-03 -0.3014007E-04  0.9230339E-05
  0.4900000E+01  0.1057087E-04  0.2666539E-03  0.3800982E+06  0.4359264E+05  0.1279516E-04  0.1042482E-03  0.1955736E+07  0.2063896E+06 -0.6602214E-03 -0.9423318E-03 -0.3014007E-04  0.5412986E-05
  0.5000000E+01  0.1057087E-04  0.2337943E-03  0.3800982E+06  0.3698593E+05  0.1279516E-04  0.1307153E-03  0.1955736E+07  0.1819173E+06 -0.6602214E-03 -0.1094620E-02 -0.3014007E-04  0.1487112E-05