VARIABLES="w (rad/s)"
"A   1   1" "B   1   1"
"A   1   2" "B   1   2"
"A   1   3" "B   1   3"
"A   1   4" "B   1   4"
"A   1   5" "B   1   5"
"A   1   6" "B   1   6"
Zone t="Motion of body    1 in DoF   1",I=   525,F=POINT
  0.4000000E-01  0.5757926E+06  0.4417979E+00  0.1895428E-02 -0.7206836E-08  0.1376629E+00  0.1847658E-03  0.1261830E-01 -0.2484740E-07 -0.2598448E+07 -0.1962013E+01 -0.1673470E-07 -0.1443290E-14
  0.8000000E-01  0.5867943E+06  0.3567199E+01 -0.6985664E-02 -0.1411536E-07  0.3752708E-01  0.8977083E-03  0.3210902E-01 -0.6676419E-07 -0.2612044E+07 -0.1574132E+02 -0.4238245E-07 -0.1492140E-12
  0.1200000E+00  0.5887806E+06  0.1257873E+02  0.6167094E-02  0.2043089E-06  0.6093979E-01  0.1315037E-02 -0.1609325E-02 -0.2861489E-06 -0.2620354E+07 -0.5545803E+02 -0.2061521E-07  0.1421085E-12
  0.1600000E+00  0.5904356E+06  0.3167906E+02  0.4673004E-02  0.1308508E-06  0.1306534E-01  0.6567985E-03  0.2808571E-01  0.4190952E-07 -0.2627176E+07 -0.1394984E+03  0.2382876E-07  0.2913225E-12
  0.2000000E+00  0.5929847E+06  0.6702058E+02 -0.2112389E-02 -0.2370216E-06 -0.2529144E-01 -0.2503619E-03 -0.2047539E-01 -0.8065253E-06 -0.2634919E+07 -0.2945722E+03 -0.6693881E-08  0.3552714E-12
  0.2400000E+00  0.5950608E+06  0.1278003E+03 -0.7454555E-02 -0.5951151E-06 -0.1601219E+00 -0.4926845E-02 -0.2588431E-01 -0.3587455E-05 -0.2644006E+07 -0.5608098E+03  0.7033426E-08  0.1705303E-12
  0.2800000E+00  0.5986522E+06  0.2280989E+03  0.1144409E-01  0.1117587E-07 -0.7585798E-01 -0.1451790E-02  0.8535385E-02  0.2987683E-05 -0.2655410E+07 -0.9981950E+03  0.9146918E-08  0.7389644E-12
  0.3200000E+00  0.6026148E+06  0.3916670E+03  0.1442432E-02  0.9313226E-06 -0.1009941E+00 -0.4393220E-02 -0.9119511E-03 -0.8150935E-05 -0.2670066E+07 -0.1709560E+04  0.5638867E-08 -0.2501110E-11
  0.3600000E+00  0.6071136E+06  0.6520465E+03  0.9748670E-02  0.5058944E-05 -0.1197391E+00 -0.9665251E-02  0.3460778E-01  0.3848970E-04 -0.2687609E+07 -0.2837195E+04  0.3492460E-07 -0.4774847E-11
  0.4000000E+00  0.6130796E+06  0.1072661E+04  0.6728172E-02 -0.3248453E-05 -0.3707886E-01 -0.3328323E-02  0.1330853E-01  0.8374453E-05 -0.2708117E+07 -0.4650066E+04 -0.1004082E-07  0.3183231E-10
  0.4400000E+00  0.6194646E+06  0.1733373E+04  0.9970232E-03  0.5692244E-05 -0.3252896E-01 -0.1300335E-02 -0.1549287E-01 -0.1822114E-03 -0.2730746E+07 -0.7481507E+04 -0.2262161E-07  0.4865797E-10
  0.4800000E+00  0.6268418E+06  0.2792520E+04 -0.9536743E-03 -0.1737475E-04 -0.4018148E-01 -0.5269051E-02 -0.1223882E-02 -0.6955862E-04 -0.2759900E+07 -0.1200530E+05  0.1212660E-07  0.2028173E-09
  0.5200000E+00  0.6359558E+06  0.4430062E+04  0.6396954E-02 -0.1358986E-04 -0.8539053E-01 -0.1385164E-01  0.5142506E-02  0.2127886E-04 -0.2791956E+07 -0.1894208E+05  0.1164153E-07 -0.1909939E-09
  0.5600000E+00  0.6460460E+06  0.6964009E+04  0.5047662E-02 -0.9810925E-04 -0.1462664E+00 -0.3164768E-01  0.4325594E-02 -0.2797842E-03 -0.2827793E+07 -0.2960931E+05  0.3949805E-08  0.4183676E-10
  0.6000000E+00  0.6578138E+06  0.1076952E+05  0.1054128E-01 -0.2145767E-05 -0.1208496E+00 -0.5140495E-01  0.8843740E-02 -0.8428097E-04 -0.2871376E+07 -0.4552344E+05  0.5820766E-09 -0.5929905E-09
  0.6400000E+00  0.6696999E+06  0.1624346E+05 -0.4041195E-02  0.3170967E-04 -0.6532669E-01 -0.7546616E-01 -0.4609227E-01  0.3440380E-03 -0.2915914E+07 -0.6823659E+05  0.7275958E-09  0.1455192E-09
  0.6800000E+00  0.6834108E+06  0.2407698E+05  0.6580353E-02  0.2527237E-03 -0.1273660E+00 -0.5318069E-01  0.4201777E-02  0.9298325E-04 -0.2961722E+07 -0.1004071E+06  0.2687824E-07  0.2182787E-10
  0.7200000E+00  0.6966101E+06  0.3460966E+05 -0.1165602E-03  0.5674362E-04 -0.7366604E-01  0.2177429E-01  0.1906819E-01  0.7462502E-03 -0.3005309E+07 -0.1431856E+06  0.3233759E-08  0.2255547E-08
  0.7600000E+00  0.7099112E+06  0.4865978E+05 -0.5651775E-02  0.4334450E-03  0.6685759E-01  0.9510803E-01  0.2238123E-01 -0.1944065E-02 -0.3050839E+07 -0.1997553E+06  0.4901698E-08 -0.2939487E-08
  0.8000000E+00  0.7231354E+06  0.6689720E+05 -0.1496315E-01  0.7534027E-03  0.1298141E+00  0.1154022E+00  0.4554272E-01 -0.2129555E-02 -0.3095598E+07 -0.2724323E+06 -0.6693881E-08  0.7858034E-09
  0.8400000E+00  0.7341001E+06  0.8952901E+05 -0.6920951E-02 -0.3070831E-03  0.4374186E-01  0.7045746E-01 -0.1008170E-02 -0.1413345E-02 -0.3125376E+07 -0.3610797E+06 -0.3076691E-07 -0.5820766E-10
  0.8800000E+00  0.7431826E+06  0.1173885E+06 -0.3701990E-02 -0.4863739E-03  0.8277893E-01  0.8597565E-01  0.4664334E-02  0.1165390E-02 -0.3146749E+07 -0.4687189E+06 -0.2725177E-07  0.6402843E-09
  0.9200000E+00  0.7495819E+06  0.1508254E+06 -0.1177580E-02 -0.5550385E-03  0.6375520E-01  0.8714294E-01 -0.2255647E-01  0.7061005E-02 -0.3156470E+07 -0.5959470E+06 -0.2556076E-07  0.4598405E-08
  0.9600000E+00  0.7499617E+06  0.1893593E+06 -0.1130899E-01 -0.4291534E-03  0.4043579E-01  0.7209778E-01  0.7708868E-03  0.1194000E-02 -0.3142052E+07 -0.7399121E+06 -0.5699500E-07  0.1024455E-07
  0.1000000E+01  0.7456809E+06  0.2329270E+06  0.2998352E-02 -0.1083374E-02  0.5068970E-01  0.1152039E+00 -0.4015350E-01  0.1670837E-02 -0.3112922E+07 -0.9003249E+06 -0.3678724E-07 -0.2444722E-08
  0.1040000E+01  0.7352753E+06  0.2800642E+06 -0.8949867E-03 -0.5416870E-03  0.2781795E-01  0.8747864E-01 -0.5648687E-03 -0.2866745E-02 -0.3055348E+07 -0.1068926E+07 -0.4925264E-08  0.7101335E-08
  0.1080000E+01  0.7188963E+06  0.3297112E+06 -0.1370465E-02 -0.4730225E-03  0.5066483E-01  0.9490967E-01 -0.2437168E-02  0.1642609E-01 -0.2977378E+07 -0.1242323E+07 -0.1940255E-07  0.8149073E-09
  0.1120000E+01  0.6947108E+06  0.3794878E+06 -0.2690724E-02 -0.5767822E-02  0.8147104E-02  0.1516724E-01  0.2903938E-01 -0.1659012E-01 -0.2869680E+07 -0.1409855E+07 -0.1309672E-07 -0.5355105E-08
  0.1160000E+01  0.6652146E+06  0.4279497E+06  0.4952529E-02  0.1907349E-03  0.2801829E-01  0.2081299E-01 -0.3780168E-01  0.5035400E-02 -0.2747180E+07 -0.1567684E+07  0.2589237E-07  0.1001172E-07
  0.1200000E+01  0.6311697E+06  0.4724305E+06  0.8513132E-02  0.2067566E-02 -0.3280639E-02  0.3884888E-01  0.5070368E-02  0.9834290E-02 -0.2608570E+07 -0.1703967E+07  0.2134281E-08  0.2328306E-08
  0.1240000E+01  0.5939712E+06  0.5116996E+06 -0.1061347E-01  0.1731873E-02  0.2837642E-01  0.3533936E-01 -0.2858562E-01 -0.1351929E-01 -0.2464171E+07 -0.1817075E+07  0.3680226E-07  0.2328306E-09
  0.1280000E+01  0.5535188E+06  0.5432008E+06 -0.3749132E-02  0.3051758E-02  0.4961491E-01  0.3701782E-01 -0.1424551E-02 -0.1045227E-01 -0.2309919E+07 -0.1895484E+07  0.9458745E-08  0.2281740E-07
  0.1320000E+01  0.5140497E+06  0.5682511E+06 -0.3254052E-02 -0.4272461E-03  0.3895615E-01  0.3091431E-01 -0.1028812E-01  0.5279541E-02 -0.2167357E+07 -0.1950576E+07  0.2028449E-07  0.1816079E-07
  0.1360000E+01  0.4746719E+06  0.5841903E+06 -0.1183678E-02 -0.9735107E-02 -0.2773509E-01  0.2633667E-01 -0.2981915E-01 -0.3208160E-02 -0.2026470E+07 -0.1967697E+07  0.3458220E-07  0.3259629E-08
  0.1400000E+01  0.4384963E+06  0.5937396E+06 -0.1188006E-02 -0.5538940E-02 -0.4089355E-01  0.3520203E-01  0.2413886E-01 -0.3736877E-01 -0.1902072E+07 -0.1962010E+07  0.2943645E-07  0.4144385E-07
  0.1440000E+01  0.4048223E+06  0.5961569E+06  0.3544489E-02  0.2487183E-02 -0.5118052E-01  0.2418518E-01  0.9237395E-02 -0.1128578E-01 -0.1791886E+07 -0.1932808E+07 -0.1115647E-07 -0.4190952E-08
  0.1480000E+01  0.3739624E+06  0.5913334E+06  0.3350748E-03  0.4501343E-02 -0.3140424E-01  0.2510071E-01  0.1828219E-01  0.2937317E-02 -0.1692421E+07 -0.1874847E+07  0.1022567E-07  0.2630986E-07
  0.1520000E+01  0.3474364E+06  0.5833561E+06 -0.3915084E-03  0.2075195E-02 -0.5521272E-01 -0.4074097E-02 -0.3564483E-01  0.2143288E-01 -0.1613743E+07 -0.1813635E+07  0.2450849E-08  0.1350418E-07
  0.1560000E+01  0.3240911E+06  0.5698784E+06  0.7604941E-03 -0.2761841E-02 -0.5870721E-01  0.1258850E-01 -0.5890773E-02  0.1686859E-01 -0.1546326E+07 -0.1731348E+07  0.3059634E-08  0.9313226E-08
  0.1600000E+01  0.3047598E+06  0.5541354E+06  0.3600121E-02  0.1998901E-02 -0.2271652E-01  0.1068115E-01  0.1708984E-01  0.2693367E-01 -0.1494545E+07 -0.1644644E+07  0.1258741E-07  0.1257285E-07
  0.1640000E+01  0.2888234E+06  0.5369021E+06 -0.5112625E-02  0.6835938E-02 -0.4560889E-01  0.4852295E-02 -0.1538207E-01 -0.9162903E-02 -0.1456529E+07 -0.1558339E+07  0.8589179E-08  0.3352761E-07
  0.1680000E+01  0.2753323E+06  0.5167552E+06 -0.5835579E-02 -0.2288818E-02 -0.1402356E-01  0.5928040E-02  0.9602592E-02 -0.4951477E-02 -0.1427012E+07 -0.1462237E+07 -0.4504165E-08  0.3259629E-08
  0.1720000E+01  0.2642988E+06  0.4952865E+06  0.1308530E-03  0.1388550E-02 -0.5541069E-01 -0.2960205E-02  0.8884696E-02  0.1964378E-01 -0.1406123E+07 -0.1364515E+07  0.6937541E-08  0.2910383E-07
  0.1760000E+01  0.2558713E+06  0.4756187E+06  0.1008944E-02 -0.3936768E-02 -0.3852844E-01  0.1846313E-02  0.1398650E-01  0.1218605E-01 -0.1394888E+07 -0.1281969E+07  0.1709850E-07 -0.1140870E-07
  0.1800000E+01  0.2492156E+06  0.4531181E+06  0.2498627E-02 -0.4211426E-02 -0.2270169E-01  0.5134583E-02 -0.2102322E-01 -0.4539490E-02 -0.1388664E+07 -0.1186134E+07 -0.1164153E-08 -0.2281740E-07
  0.1840000E+01  0.2441327E+06  0.4321966E+06  0.6385471E-03 -0.3768921E-02 -0.4216070E-01  0.7553101E-02 -0.1983643E-01 -0.3615379E-02 -0.1388173E+07 -0.1100306E+07  0.5093170E-08  0.6286427E-08
  0.1880000E+01  0.2411267E+06  0.4131153E+06  0.1812488E-02  0.1701355E-02 -0.2658925E-01  0.5107880E-02  0.9800525E-02  0.4051208E-02 -0.1393386E+07 -0.1026010E+07  0.7167592E-08  0.2048910E-07
  0.1920000E+01  0.2388689E+06  0.3933059E+06  0.2322098E-02  0.4455566E-02 -0.2206167E-01  0.4852295E-02  0.2133846E-02 -0.1428509E-01 -0.1400466E+07 -0.9515626E+06  0.9094947E-10 -0.1513399E-07
  0.1960000E+01  0.2377852E+06  0.3725527E+06  0.8271665E-05 -0.9994507E-03 -0.1198905E-01  0.9157181E-02  0.6294250E-02 -0.2153730E-01 -0.1411754E+07 -0.8710472E+06 -0.4677401E-09 -0.9080395E-08
  0.2000000E+01  0.2372660E+06  0.3540399E+06  0.5370975E-03 -0.3288269E-02 -0.1190186E-02  0.9281158E-02  0.3841400E-02  0.2914190E-02 -0.1423032E+07 -0.8055602E+06  0.4474714E-09 -0.1513399E-07
  0.2040000E+01  0.2372897E+06  0.3374912E+06 -0.1519334E-02  0.2723694E-02 -0.8586809E-02  0.4869461E-02 -0.1365063E-02 -0.2676725E-02 -0.1435096E+07 -0.7500031E+06  0.8916615E-10 -0.9313226E-08
  0.2080000E+01  0.2383768E+06  0.3194775E+06  0.4564340E-03  0.4501343E-03 -0.3756010E-01  0.1814842E-02  0.1568061E-01 -0.7188559E-02 -0.1450872E+07 -0.6863508E+06 -0.1014786E-07 -0.1862645E-08
  0.2120000E+01  0.2398668E+06  0.3036482E+06  0.5897486E-03  0.9841919E-03  0.1900151E-02  0.5376816E-02 -0.1120657E-01 -0.2299905E-02 -0.1466574E+07 -0.6329672E+06 -0.1767509E-07 -0.1513399E-07
  0.2160000E+01  0.2415318E+06  0.2900821E+06 -0.3088624E-02 -0.2098083E-02  0.5284062E-02 -0.3483772E-02  0.1179730E-01  0.2112985E-02 -0.1481520E+07 -0.5894931E+06  0.6002665E-08 -0.2793968E-08
  0.2200000E+01  0.2429499E+06  0.2758788E+06  0.2133196E-02  0.8468628E-03  0.4061612E-01  0.7967949E-03 -0.4102533E-02 -0.2091050E-02 -0.1494770E+07 -0.5459823E+06  0.8797294E-08 -0.2561137E-08
  0.2240000E+01  0.2449090E+06  0.2618624E+06  0.4512923E-03  0.1899719E-02  0.6054470E-01  0.4789829E-02 -0.1063006E-01 -0.1571834E-02 -0.1510230E+07 -0.5021910E+06 -0.1455192E-08 -0.3026798E-08
  0.2280000E+01  0.2471598E+06  0.2479812E+06 -0.2957645E-02  0.2822876E-03  0.1009222E+00  0.3517151E-02  0.7040459E-02 -0.5500078E-02 -0.1526399E+07 -0.4597501E+06  0.4595342E-08 -0.7217750E-08
  0.2320000E+01  0.2488353E+06  0.2356358E+06 -0.2007238E-02  0.1564026E-02  0.6095623E-01  0.6718636E-03  0.4584214E-02  0.9380579E-03 -0.1538756E+07 -0.4247972E+06 -0.1021143E-07  0.6519258E-08
  0.2360000E+01  0.2504745E+06  0.2239217E+06  0.1085007E-02 -0.2624512E-02  0.5648338E-01 -0.4000187E-02 -0.1822326E-01  0.1980126E-02 -0.1550787E+07 -0.3917664E+06 -0.8780478E-08 -0.1862645E-08
  0.2400000E+01  0.2525940E+06  0.2122317E+06 -0.1301765E-02 -0.1617432E-02 -0.2975464E-02 -0.1085758E-02 -0.1236280E-01 -0.2887756E-02 -0.1565039E+07 -0.3585588E+06  0.4486840E-09  0.1164153E-08
  0.2440000E+01  0.2542859E+06  0.2013104E+06 -0.8387644E-03 -0.1983643E-03  0.4072345E-01  0.3323078E-02 -0.4205547E-02 -0.1638860E-02 -0.1576955E+07 -0.3276438E+06  0.5176665E-08 -0.4656613E-09
  0.2480000E+01  0.2553880E+06  0.1908305E+06  0.2712588E-02  0.3814697E-04  0.3327401E-01 -0.2916932E-02  0.1713537E-01 -0.1428723E-03 -0.1586630E+07 -0.2966494E+06  0.8519912E-08 -0.4656613E-09
  0.2520000E+01  0.2560515E+06  0.1788657E+06 -0.2038290E-02 -0.7476807E-03  0.6236727E-01 -0.5017757E-02 -0.1368447E-01 -0.1428410E-02 -0.1595366E+07 -0.2616224E+06 -0.6398223E-08  0.6984919E-09
  0.2560000E+01  0.2563470E+06  0.1654340E+06 -0.1074374E-02 -0.1235962E-02  0.8392334E-01 -0.5245999E-02 -0.3963709E-03  0.1178309E-02 -0.1604498E+07 -0.2230802E+06  0.3160494E-08  0.1629815E-08
  0.2600000E+01  0.2561041E+06  0.1489323E+06 -0.1605841E-02 -0.3967285E-03  0.9890043E-01 -0.5436778E-02  0.9921147E-02  0.3661066E-03 -0.1614665E+07 -0.1778670E+06  0.3783498E-08  0.1396984E-08
  0.2640000E+01  0.2547065E+06  0.1253687E+06  0.2564806E-02  0.1365662E-02  0.5070079E-01 -0.4865885E-02 -0.6135304E-02 -0.7783473E-03 -0.1624847E+07 -0.1201906E+06  0.1133285E-07  0.5355105E-08
  0.2680000E+01  0.2534192E+06  0.8124000E+05 -0.5736279E-03 -0.7667542E-03 -0.1191096E-01  0.6635189E-03 -0.5460141E-02  0.3049374E-03 -0.1642033E+07 -0.3058421E+05  0.1290125E-07 -0.6170012E-08
  0.2720000E+01  0.2717788E+06  0.2240460E+04  0.7755616E-03 -0.5245209E-04  0.3991969E-01  0.1265287E-02 -0.2061900E-01  0.8319914E-03 -0.1704951E+07  0.6646087E+05  0.1069994E-08  0.2910383E-10
  0.2760000E+01  0.3129890E+06  0.3519849E+05 -0.3316955E-02  0.3366470E-03  0.3564807E-01  0.1262605E-02  0.5196834E-03  0.3794953E-03 -0.1766646E+07 -0.9100439E+05 -0.2293508E-08 -0.1513399E-08
  0.2800000E+01  0.3137146E+06  0.9782038E+05  0.1038824E-02 -0.1277924E-02  0.3104074E-01  0.4456617E-02 -0.2618517E-02 -0.5236734E-04 -0.1749625E+07 -0.1932353E+06 -0.7463054E-08 -0.2677552E-08
  0.2840000E+01  0.3084812E+06  0.1164677E+06  0.1810302E-02  0.9613037E-03  0.6071279E-01  0.2495408E-02 -0.9370186E-02  0.1078054E-02 -0.1738246E+07 -0.2078291E+06 -0.2033169E-07  0.1280569E-08
  0.2880000E+01  0.3054778E+06  0.1216095E+06  0.3735224E-03  0.9040833E-03  0.8566114E-01  0.1461573E-02  0.1266797E-01  0.1734073E-02 -0.1734743E+07 -0.2074365E+06 -0.1465297E-07  0.9895302E-08
  0.2920000E+01  0.3039858E+06  0.1184240E+06 -0.3162802E-02 -0.5264282E-03  0.7113104E-01  0.1258838E-02 -0.6396150E-02  0.6866172E-03 -0.1734873E+07 -0.1881885E+06  0.1662506E-07  0.1746230E-08
  0.2960000E+01  0.3036914E+06  0.1143570E+06  0.8144894E-02  0.1365662E-02  0.3509521E-01 -0.9822547E-03  0.7222150E-02 -0.1385439E-02 -0.1738414E+07 -0.1723404E+06  0.9060534E-08 -0.2444722E-08
  0.3000000E+01  0.3039502E+06  0.1092623E+06  0.3696124E-02 -0.1045227E-02  0.2581787E-01 -0.1982391E-02 -0.1462301E-01 -0.1593232E-03 -0.1742578E+07 -0.1550489E+06 -0.1078782E-07 -0.2328306E-09
  0.3040000E+01  0.3046292E+06  0.1040387E+06 -0.1623285E-02  0.1487732E-03  0.2598010E-01 -0.2081931E-02 -0.5019339E-04 -0.1565468E-02 -0.1747681E+07 -0.1387799E+06 -0.9190684E-08  0.5820766E-09
  0.3080000E+01  0.3056708E+06  0.9855904E+05  0.1253865E-02  0.4692078E-03 -0.7530312E-03 -0.2467565E-02 -0.2312598E-01  0.5693780E-03 -0.1754345E+07 -0.1243079E+06 -0.5782969E-08 -0.1396984E-08
  0.3120000E+01  0.3065669E+06  0.9343927E+05  0.1089695E-02 -0.2212524E-03 -0.2558782E-01 -0.1698494E-02  0.1676022E-01  0.3714254E-03 -0.1759247E+07 -0.1128721E+06  0.6051638E-08 -0.3259629E-08
  0.3160000E+01  0.3075718E+06  0.8841097E+05 -0.3554926E-02 -0.3089905E-03 -0.4987113E-01 -0.1102284E-02 -0.1636940E-01 -0.2270769E-03 -0.1764304E+07 -0.1018932E+06 -0.7331218E-08  0.3492460E-09
  0.3200000E+01  0.3087042E+06  0.8368506E+05  0.1618117E-02 -0.2403259E-03 -0.5226135E-01 -0.5145520E-03 -0.1562595E-01  0.1185790E-02 -0.1769788E+07 -0.9220805E+05 -0.3001333E-09 -0.3026798E-08
  0.3240000E+01  0.3100127E+06  0.7945899E+05 -0.2827468E-02  0.3814697E-05 -0.3997426E-01  0.7487088E-04 -0.1974224E-01  0.6148834E-03 -0.1776691E+07 -0.8452302E+05  0.8266296E-08  0.4540198E-08
  0.3280000E+01  0.3106456E+06  0.7532906E+05 -0.1147171E-02 -0.6332397E-03 -0.4227801E-01  0.4344024E-03  0.1949682E-01  0.4107207E-03 -0.1780038E+07 -0.7766181E+05 -0.9560785E-09 -0.5820766E-09
  0.3320000E+01  0.3109705E+06  0.7101159E+05 -0.2345551E-02 -0.2098083E-03 -0.2132554E-01  0.2449751E-04  0.2353622E-01  0.2686158E-03 -0.1782109E+07 -0.6999631E+05  0.4852100E-08  0.3841706E-08
  0.3360000E+01  0.3117584E+06  0.6505532E+05  0.2845199E-02  0.3814697E-05 -0.1743862E-01  0.3131032E-03 -0.4573096E-02 -0.1387186E-03 -0.1785803E+07 -0.5856396E+05  0.3331566E-08  0.2444722E-08
  0.3400000E+01  0.3126653E+06  0.5857798E+05 -0.2565840E-02  0.4577637E-03 -0.1220703E-01  0.8597374E-03 -0.1118828E-01  0.3262758E-03 -0.1790128E+07 -0.4632536E+05  0.3712878E-09 -0.8149073E-09
  0.3440000E+01  0.3140477E+06  0.5134371E+05 -0.9354117E-03 -0.3776550E-03 -0.2388178E-01  0.1080036E-03 -0.1995175E-01 -0.3757477E-03 -0.1797536E+07 -0.3274493E+05 -0.3658601E-08  0.1105946E-08
  0.3480000E+01  0.3150943E+06  0.4304507E+05 -0.1260433E-03  0.2651215E-03 -0.3286778E-01  0.9322166E-04  0.3279763E-02  0.1262724E-03 -0.1802428E+07 -0.1797355E+05  0.9351069E-09  0.6402843E-09
  0.3520000E+01  0.3162525E+06  0.3286714E+05 -0.3493700E-02 -0.4158020E-03 -0.2819408E-01  0.3025532E-03  0.2815940E-01  0.3993511E-04 -0.1807579E+07 -0.3579874E+03 -0.1730753E-07 -0.2444722E-08
  0.3560000E+01  0.3179881E+06  0.2027822E+05 -0.4787040E-03  0.3433228E-04 -0.3644965E-01 -0.2439022E-03 -0.9335293E-02 -0.7626414E-04 -0.1813984E+07  0.1836594E+05  0.9514183E-08  0.1105946E-08
  0.3600000E+01  0.3211274E+06  0.5473002E+04 -0.5299515E-03  0.2384186E-04 -0.2383762E-01 -0.3490448E-03 -0.1004537E-01 -0.2827346E-03 -0.1823093E+07  0.3685943E+05 -0.1855369E-08 -0.4947651E-09
  0.3640000E+01  0.3267004E+06 -0.8440035E+04  0.3328428E-02 -0.3600121E-04 -0.1958491E-01  0.8821487E-04 -0.2239772E-01  0.6330013E-04 -0.1835884E+07  0.4714800E+05  0.4797335E-08 -0.1309672E-09
  0.3680000E+01  0.3355546E+06 -0.1138227E+05 -0.1562678E-02  0.1430511E-05  0.1748126E-01 -0.4065037E-04 -0.1809908E-01  0.1596659E-03 -0.1854569E+07  0.3254163E+05  0.1964509E-07  0.8003553E-10
  0.3720000E+01  0.3424911E+06  0.4936731E+04 -0.4204370E-03  0.5483627E-05  0.1089445E-01  0.7456541E-04  0.2861843E-01 -0.5728751E-04 -0.1863560E+07 -0.1066396E+05 -0.5820766E-08 -0.1018634E-09
  0.3760000E+01  0.3443251E+06  0.2769447E+05 -0.2409549E-02 -0.3528595E-04  0.6038585E-02  0.1708269E-03 -0.3043641E-02  0.6456077E-03 -0.1863181E+07 -0.5176005E+05 -0.2167307E-08  0.4365575E-09
  0.3800000E+01  0.3430404E+06  0.4246522E+05  0.3180253E-02 -0.1029968E-03  0.1201429E-01  0.9202957E-04  0.1410233E-01 -0.5034804E-03 -0.1859331E+07 -0.7274664E+05  0.2512120E-08 -0.5238689E-09
  0.3840000E+01  0.3410642E+06  0.4924579E+05  0.4798174E-03 -0.4920959E-03  0.4437765E-01  0.1381814E-02 -0.1344283E-01 -0.8117706E-03 -0.1855622E+07 -0.7988935E+05 -0.1603742E-07 -0.7566996E-09
  0.3880000E+01  0.3395521E+06  0.5000424E+05  0.7545825E-02 -0.2861023E-03  0.3133557E-01  0.1186863E-02  0.2111848E-02 -0.2038479E-04 -0.1853230E+07 -0.7463126E+05 -0.6270825E-08  0.1455192E-08
  0.3920000E+01  0.3385449E+06  0.4845732E+05 -0.5060313E-02 -0.3356934E-03  0.3967285E-01  0.1441568E-02  0.2735294E-01 -0.6712060E-03 -0.1852235E+07 -0.6708646E+05 -0.1562104E-07 -0.1455192E-08
  0.3960000E+01  0.3379079E+06  0.4582717E+05 -0.2027762E-02 -0.9155273E-04  0.1831055E-01  0.1521111E-02 -0.1415291E-01 -0.8611195E-04 -0.1852090E+07 -0.5911407E+05 -0.2035798E-07  0.1746230E-09
  0.4000000E+01  0.3383764E+06  0.4257885E+05  0.5910873E-02 -0.3128052E-03  0.4852295E-02  0.6645024E-03 -0.7175446E-02  0.8582585E-03 -0.1856602E+07 -0.5128934E+05 -0.9677024E-08 -0.3550667E-08
  0.4040000E+01  0.3382104E+06  0.3874677E+05  0.1320036E-02  0.8583069E-04  0.1130057E-01  0.1762375E-02 -0.1828033E-02 -0.3383420E-03 -0.1857353E+07 -0.4233474E+05 -0.1311113E-08  0.1571607E-08
  0.4080000E+01  0.3382305E+06  0.3426880E+05 -0.3551034E-02  0.7019043E-03  0.1825071E-02  0.1346055E-02  0.4496481E-01 -0.2581952E-03 -0.1858492E+07 -0.3274852E+05 -0.1677750E-07 -0.5820766E-10
  0.4120000E+01  0.3385735E+06  0.2879508E+05  0.3388785E-03  0.4577637E-03  0.1345144E-01 -0.9191632E-03  0.5899818E-02  0.1506899E-03 -0.1860413E+07 -0.2206685E+05 -0.1599298E-07  0.1105946E-08
  0.4160000E+01  0.3390839E+06  0.2300857E+05  0.4447882E-02 -0.1525879E-04  0.5780734E-02 -0.2498850E-02 -0.5333241E-02  0.6853603E-04 -0.1862626E+07 -0.1165706E+05  0.7541810E-08 -0.7858034E-09
  0.4200000E+01  0.3397786E+06  0.1682106E+05 -0.1987276E-02 -0.3452301E-03  0.5987259E-02 -0.1744509E-02  0.1109169E-01  0.6355345E-05 -0.1865141E+07 -0.1322262E+04  0.8370816E-08 -0.3201421E-09
  0.4240000E+01  0.3407197E+06  0.1016140E+05  0.2230339E-02  0.1688004E-03  0.2694760E-01 -0.1308382E-02 -0.1688544E-01 -0.1732111E-03 -0.1868062E+07  0.9057123E+04 -0.7825087E-08  0.2910383E-10
  0.4280000E+01  0.3420210E+06  0.3088451E+04  0.3342316E-03 -0.2861023E-05  0.2053519E-01 -0.1595259E-02  0.3145521E-01 -0.4725158E-04 -0.1871572E+07  0.1929619E+05  0.3127982E-08  0.2910383E-09
  0.4320000E+01  0.3438607E+06 -0.3982765E+04  0.2744463E-02  0.1502037E-04  0.3034803E-01 -0.1613617E-02 -0.2561145E-01  0.1425296E-03 -0.1875957E+07  0.2838164E+05  0.2128891E-07  0.1309672E-09
  0.4360000E+01  0.3471251E+06 -0.9706989E+04  0.7086938E-03 -0.4172325E-05  0.4107274E-01 -0.6745458E-03 -0.1567176E-01  0.2118349E-03 -0.1884598E+07  0.3426002E+05 -0.1762250E-08  0.1418812E-09
  0.4400000E+01  0.3502227E+06 -0.1113708E+05 -0.2046065E-03 -0.5674362E-04  0.3784180E-01 -0.4302859E-03 -0.9228099E-02  0.5462617E-03 -0.1890566E+07  0.3018272E+05  0.8916355E-08  0.3565219E-09
  0.4440000E+01  0.3531706E+06 -0.6520542E+04  0.4880063E-03 -0.9059906E-05  0.5080764E-01  0.4447103E-03  0.1072239E-02  0.1432970E-03 -0.1895560E+07  0.1527161E+05  0.7682362E-08  0.1746230E-09
  0.4480000E+01  0.3549982E+06  0.2774982E+04  0.1319817E-02 -0.1418590E-04  0.4994529E-01 -0.2089888E-03  0.4090582E-02 -0.3907457E-04 -0.1897693E+07 -0.5780182E+04  0.9536701E-08 -0.3637979E-10
  0.4520000E+01  0.3554681E+06  0.1244420E+05 -0.2249996E-02  0.4196167E-04  0.5239301E-01 -0.2773404E-03 -0.1253449E-01  0.8457899E-04 -0.1897380E+07 -0.2374452E+05 -0.9272017E-09 -0.6402843E-09
  0.4560000E+01  0.3550182E+06  0.1944990E+05 -0.3930142E-02  0.1430511E-03  0.4679362E-01 -0.5788207E-03  0.1559341E-01  0.9774417E-04 -0.1895827E+07 -0.3448300E+05 -0.6152652E-08 -0.9313226E-09
  0.4600000E+01  0.3542240E+06  0.2316205E+05 -0.2503603E-02  0.6103516E-04  0.5092455E-01 -0.4926324E-03 -0.1253874E-02  0.2141446E-03 -0.1894104E+07 -0.3853203E+05  0.6402843E-08  0.4365575E-09
  0.4640000E+01  0.3534126E+06  0.2422959E+05  0.1397626E-03  0.1077652E-03  0.5569458E-01 -0.6568432E-04  0.8352872E-03 -0.2985448E-04 -0.1892674E+07 -0.3795364E+05 -0.1512897E-07  0.9604264E-09
  0.4680000E+01  0.3527181E+06  0.2342204E+05 -0.1066159E-02 -0.4196167E-04  0.3949027E-01  0.5890131E-03 -0.3235646E-01  0.7648021E-04 -0.1891629E+07 -0.3442855E+05 -0.6815769E-08  0.2037268E-09
  0.4720000E+01  0.3522649E+06  0.2071932E+05  0.4440243E-02  0.2861023E-04  0.5420750E-01  0.4237890E-03 -0.1251415E-01 -0.4162639E-04 -0.1891188E+07 -0.2748570E+05 -0.1590845E-07 -0.4947651E-09
  0.4760000E+01  0.3521317E+06  0.1670511E+05  0.2067630E-02  0.4100800E-04  0.6041967E-01  0.7295310E-03 -0.3901249E-01  0.7801130E-04 -0.1891495E+07 -0.1853584E+05 -0.2837012E-08  0.8731149E-09
  0.4800000E+01  0.3522529E+06  0.1219626E+05 -0.2853870E-02 -0.5435944E-04  0.5009969E-01 -0.1197811E-02  0.6742477E-02 -0.1851888E-04 -0.1892346E+07 -0.9420040E+04  0.1028335E-07 -0.3201421E-09
  0.4840000E+01  0.3526278E+06  0.7442278E+04 -0.2122517E-02  0.1096725E-04  0.6010197E-01  0.4254282E-03 -0.1203679E-01  0.2987683E-05 -0.1893687E+07 -0.5829536E+03 -0.3463596E-08  0.2328306E-09
  0.4880000E+01  0.3537064E+06  0.2601432E+04 -0.4596397E-03 -0.1025200E-04  0.4284968E-01 -0.9416342E-03 -0.6960259E-02  0.1468286E-03 -0.1896999E+07  0.7886617E+04 -0.8421027E-08  0.2473826E-09
  0.4920000E+01  0.3546078E+06 -0.1929778E+04  0.2547784E-02  0.1752377E-04  0.3679477E-01 -0.1346409E-02 -0.9791057E-02 -0.5210191E-04 -0.1899218E+07  0.1496674E+05  0.1083704E-07  0.7275958E-10
  0.4960000E+01  0.3558010E+06 -0.5753158E+04 -0.5552846E-02  0.4231930E-04  0.4124795E-01 -0.1244128E-02  0.6617269E-02  0.2391040E-03 -0.1901881E+07  0.2008795E+05 -0.8238262E-08  0.8094503E-10
  0.5000000E+01  0.3572943E+06 -0.7913479E+04  0.2282715E-02 -0.1597404E-04  0.4606934E-01 -0.2261400E-03  0.1985779E-01 -0.8913875E-04 -0.1904915E+07  0.2133325E+05  0.5401671E-08 -0.3492460E-09
  0.5040000E+01  0.3588615E+06 -0.7283363E+04 -0.6357829E-03 -0.3671646E-04  0.4330590E-01  0.1296997E-03 -0.8443803E-02  0.2092570E-03 -0.1907802E+07  0.1705108E+05 -0.1168773E-07  0.2328306E-09
  0.5080000E+01  0.3601625E+06 -0.4053274E+04 -0.1076826E-02  0.1573563E-04  0.4318117E-01  0.8099675E-03  0.1812131E-01 -0.2563372E-04 -0.1909984E+07  0.8657795E+04  0.7333248E-09 -0.1273293E-09
  0.5120000E+01  0.3609597E+06  0.7211996E+03  0.3311038E-02  0.4798174E-05  0.3969669E-01 -0.3406480E-03 -0.1189113E-01  0.2679601E-04 -0.1911134E+07 -0.1433546E+04 -0.7867129E-08 -0.2364686E-10
  0.5160000E+01  0.3612085E+06  0.5378516E+04 -0.1865949E-02 -0.1003742E-03  0.4790550E-01 -0.5824566E-03  0.2462993E-01 -0.6624684E-04 -0.1911238E+07 -0.1005534E+05  0.2585503E-07 -0.1746230E-09
  0.5200000E+01  0.3610801E+06  0.8694802E+04 -0.2746582E-02  0.4959106E-04  0.5016620E-01 -0.5758405E-03  0.1621833E-01 -0.7323176E-04 -0.1910793E+07 -0.1532514E+05 -0.8193848E-08 -0.3201421E-09
  0.5240000E+01  0.3607854E+06  0.1027785E+05  0.3024094E-02 -0.1130104E-03  0.5092476E-01 -0.4004836E-03 -0.1205561E-02  0.1511574E-03 -0.1910214E+07 -0.1708260E+05 -0.1115277E-07  0.8440111E-09
  0.5280000E+01  0.3604871E+06  0.1028790E+05  0.5346356E-03  0.4720688E-04  0.5130190E-01  0.1637042E-03 -0.2227841E-01  0.2370700E-03 -0.1909762E+07 -0.1603775E+05  0.1380227E-07  0.2910383E-10
  0.5320000E+01  0.3602795E+06  0.9096305E+04 -0.2701838E-02  0.2064705E-03  0.5603303E-01  0.1259446E-03  0.7500326E-02 -0.6888062E-04 -0.1909560E+07 -0.1306493E+05  0.4726637E-08  0.4074536E-09
  0.5360000E+01  0.3602044E+06  0.7075815E+04 -0.4719976E-02  0.6437302E-04  0.5158382E-01 -0.1411438E-03  0.2595987E-01  0.1032502E-03 -0.1909642E+07 -0.8858315E+04  0.1064245E-07 -0.1746230E-09
  0.5400000E+01  0.3602810E+06  0.4531317E+04  0.1185382E-02 -0.5602837E-04  0.5061397E-01 -0.8180058E-03  0.3481830E-01 -0.2594432E-05 -0.1910014E+07 -0.3886318E+04  0.1547893E-07  0.2546585E-09
  0.5440000E+01  0.3605625E+06  0.1720802E+04  0.3016696E-02  0.2527237E-04  0.5751217E-01  0.4578531E-03 -0.5525701E-02  0.6793067E-05 -0.1910789E+07  0.1413003E+04 -0.2020148E-07 -0.1346052E-09
  0.5480000E+01  0.3610822E+06 -0.8280341E+03 -0.2031257E-02  0.4172325E-05  0.4593230E-01  0.1481473E-03  0.4822668E-02 -0.8197129E-04 -0.1912027E+07  0.5788058E+04 -0.4673608E-09  0.9094947E-11
  0.5520000E+01  0.3617332E+06 -0.2679482E+04 -0.1758078E-02 -0.1659989E-04  0.5530758E-01  0.2075136E-03 -0.2425374E-01 -0.6254017E-04 -0.1913473E+07  0.8518821E+04  0.2488588E-08 -0.4547474E-11
  0.5560000E+01  0.3624548E+06 -0.3610818E+04 -0.7958721E-04  0.1192093E-04  0.4500794E-01 -0.2300739E-04 -0.1045611E-01  0.1557171E-04 -0.1914992E+07  0.9316639E+04 -0.2462310E-07  0.4547474E-10
  0.5600000E+01  0.3631822E+06 -0.3502541E+04 -0.1337869E-02 -0.2181530E-04  0.4455566E-01 -0.9557605E-04 -0.3019060E-02 -0.2165139E-04 -0.1916456E+07  0.8117196E+04  0.1438561E-07 -0.9458745E-10
  0.5640000E+01  0.3640357E+06 -0.2368119E+04 -0.9577326E-03 -0.1418590E-04  0.4337392E-01  0.2997518E-03 -0.5686875E-02 -0.5474314E-05 -0.1918016E+07  0.5109305E+04  0.4623587E-08 -0.2455636E-09
  0.5680000E+01  0.3645576E+06 -0.3731932E+03  0.1496329E-02 -0.4783273E-05  0.4059698E-01  0.2305619E-03  0.3288162E-02  0.2434012E-05 -0.1918955E+07  0.7623519E+03 -0.3566244E-07 -0.9549694E-11
  0.5720000E+01  0.3648964E+06  0.2186550E+04 -0.4748365E-03  0.4005432E-04  0.4473066E-01 -0.6421506E-03 -0.1062780E-01 -0.2995133E-05 -0.1919523E+07 -0.4245229E+04 -0.4477513E-09  0.2728484E-10
  0.5760000E+01  0.3650006E+06  0.4724579E+04  0.3347132E-02 -0.6818771E-04  0.3666348E-01 -0.3521740E-03 -0.3958278E-01  0.1740083E-04 -0.1919645E+07 -0.8757252E+04 -0.8367351E-08 -0.1782610E-09
  0.5800000E+01  0.3648706E+06  0.5690872E+04 -0.5511580E-03  0.7390976E-05  0.4331391E-01 -0.2843738E-03  0.6324505E-02 -0.6249547E-04 -0.1919372E+07 -0.9985138E+04  0.2549094E-07 -0.6548362E-10
  0.5840000E+01  0.3647458E+06  0.5468214E+04 -0.4207924E-02 -0.3886223E-04  0.6124418E-01 -0.7599592E-04  0.1287591E-01 -0.5362928E-04 -0.1919197E+07 -0.8951401E+04 -0.4784191E-08  0.1309672E-09
  0.5880000E+01  0.3647109E+06  0.4360734E+04  0.3339806E-02  0.3957748E-04  0.4741643E-01 -0.2766252E-03 -0.1756318E-01 -0.7105060E-04 -0.1919244E+07 -0.6435022E+04 -0.9503291E-09  0.6548362E-10
  0.5920000E+01  0.3648027E+06  0.2779844E+04  0.4720688E-02 -0.3170967E-04  0.5398312E-01 -0.4487261E-03 -0.1342877E-01  0.3188662E-04 -0.1919564E+07 -0.3309610E+04 -0.1191684E-07  0.4001777E-10
  0.5960000E+01  0.3650233E+06  0.1153152E+04 -0.1761417E-02  0.5304813E-05  0.4333906E-01 -0.2415106E-04 -0.1399917E-01  0.1504552E-05 -0.1920124E+07 -0.3914083E+03 -0.8906944E-08  0.1091394E-10
  0.6000000E+01  0.3653469E+06 -0.1719954E+03  0.7019043E-03  0.1206994E-05  0.4960124E-01  0.2198368E-03  0.1434326E-01 -0.8543953E-05 -0.1920863E+07  0.1732615E+04  0.1226241E-07  0.6821210E-11
  0.6039999E+01  0.3657253E+06 -0.9739031E+03 -0.3495122E-02 -0.9164214E-05  0.4749425E-01  0.1085848E-03 -0.4431113E-02  0.9270385E-05 -0.1921669E+07  0.2765652E+04 -0.3006754E-08  0.4729372E-10