 VARIABLES="w" "CA" "CM" "CMinf"
Zone t="Force sur  1- Mvt de  1 11",I= 150,F=POINT
   0.3000000E+01   0.1078129E+06   0.3000515E+06   0.0000000E+00
   0.2980000E+01   0.1099938E+06   0.2992752E+06   0.0000000E+00
   0.2960000E+01   0.1123513E+06   0.2984843E+06   0.0000000E+00
   0.2940000E+01   0.1148576E+06   0.2976685E+06   0.0000000E+00
   0.2920000E+01   0.1175446E+06   0.2969812E+06   0.0000000E+00
   0.2900000E+01   0.1204222E+06   0.2964092E+06   0.0000000E+00
   0.2880000E+01   0.1234824E+06   0.2959400E+06   0.0000000E+00
   0.2860000E+01   0.1259392E+06   0.2956773E+06   0.0000000E+00
   0.2840000E+01   0.1276481E+06   0.2958336E+06   0.0000000E+00
   0.2820000E+01   0.1288718E+06   0.2966988E+06   0.0000000E+00
   0.2800000E+01   0.1278054E+06   0.2988522E+06   0.0000000E+00
   0.2780000E+01   0.1168213E+06   0.3037432E+06   0.0000000E+00
   0.2760000E+01   0.5320975E+05   0.3077534E+06   0.0000000E+00
   0.2740000E+01   0.5276425E+05   0.2548032E+06   0.0000000E+00
   0.2720000E+01   0.1298413E+06   0.2604388E+06   0.0000000E+00
   0.2700000E+01   0.1467108E+06   0.2663788E+06   0.0000000E+00
   0.2680000E+01   0.1539277E+06   0.2688492E+06   0.0000000E+00
   0.2660000E+01   0.1588113E+06   0.2697702E+06   0.0000000E+00
   0.2640000E+01   0.1631148E+06   0.2698908E+06   0.0000000E+00
   0.2620000E+01   0.1674738E+06   0.2696149E+06   0.0000000E+00
   0.2600000E+01   0.1717714E+06   0.2691495E+06   0.0000000E+00
   0.2580000E+01   0.1759087E+06   0.2684793E+06   0.0000000E+00
   0.2560000E+01   0.1800875E+06   0.2677013E+06   0.0000000E+00
   0.2540000E+01   0.1844454E+06   0.2668019E+06   0.0000000E+00
   0.2520000E+01   0.1889224E+06   0.2657886E+06   0.0000000E+00
   0.2500000E+01   0.1935292E+06   0.2646607E+06   0.0000000E+00
   0.2480000E+01   0.1981870E+06   0.2634389E+06   0.0000000E+00
   0.2460000E+01   0.2028675E+06   0.2623999E+06   0.0000000E+00
   0.2440000E+01   0.2076557E+06   0.2613449E+06   0.0000000E+00
   0.2420000E+01   0.2125062E+06   0.2602064E+06   0.0000000E+00
   0.2400000E+01   0.2173896E+06   0.2589214E+06   0.0000000E+00
   0.2380000E+01   0.2224455E+06   0.2575537E+06   0.0000000E+00
   0.2360000E+01   0.2277565E+06   0.2562629E+06   0.0000000E+00
   0.2340000E+01   0.2331848E+06   0.2549855E+06   0.0000000E+00
   0.2320000E+01   0.2387412E+06   0.2537466E+06   0.0000000E+00
   0.2300000E+01   0.2446328E+06   0.2524431E+06   0.0000000E+00
   0.2280000E+01   0.2509161E+06   0.2511912E+06   0.0000000E+00
   0.2260000E+01   0.2569804E+06   0.2500154E+06   0.0000000E+00
   0.2240000E+01   0.2632304E+06   0.2487870E+06   0.0000000E+00
   0.2220000E+01   0.2695327E+06   0.2477080E+06   0.0000000E+00
   0.2200000E+01   0.2761950E+06   0.2466773E+06   0.0000000E+00
   0.2180000E+01   0.2833122E+06   0.2456344E+06   0.0000000E+00
   0.2160000E+01   0.2909612E+06   0.2445389E+06   0.0000000E+00
   0.2140000E+01   0.2986336E+06   0.2434659E+06   0.0000000E+00
   0.2120000E+01   0.3057718E+06   0.2427240E+06   0.0000000E+00
   0.2100000E+01   0.3133955E+06   0.2419310E+06   0.0000000E+00
   0.2080000E+01   0.3213828E+06   0.2410385E+06   0.0000000E+00
   0.2060000E+01   0.3298096E+06   0.2402411E+06   0.0000000E+00
   0.2040000E+01   0.3383030E+06   0.2397218E+06   0.0000000E+00
   0.2020000E+01   0.3468539E+06   0.2393304E+06   0.0000000E+00
   0.2000000E+01   0.3558178E+06   0.2391124E+06   0.0000000E+00
   0.1980000E+01   0.3653199E+06   0.2390702E+06   0.0000000E+00
   0.1960000E+01   0.3746843E+06   0.2392339E+06   0.0000000E+00
   0.1940000E+01   0.3842793E+06   0.2395005E+06   0.0000000E+00
   0.1920000E+01   0.3938179E+06   0.2400315E+06   0.0000000E+00
   0.1900000E+01   0.4036164E+06   0.2409070E+06   0.0000000E+00
   0.1880000E+01   0.4141186E+06   0.2420768E+06   0.0000000E+00
   0.1860000E+01   0.4251488E+06   0.2435175E+06   0.0000000E+00
   0.1840000E+01   0.4350977E+06   0.2452434E+06   0.0000000E+00
   0.1820000E+01   0.4454308E+06   0.2473377E+06   0.0000000E+00
   0.1800000E+01   0.4561881E+06   0.2497300E+06   0.0000000E+00
   0.1780000E+01   0.4669892E+06   0.2526008E+06   0.0000000E+00
   0.1760000E+01   0.4777175E+06   0.2559890E+06   0.0000000E+00
   0.1740000E+01   0.4881767E+06   0.2598468E+06   0.0000000E+00
   0.1720000E+01   0.4990962E+06   0.2643828E+06   0.0000000E+00
   0.1700000E+01   0.5097273E+06   0.2694934E+06   0.0000000E+00
   0.1680000E+01   0.5201108E+06   0.2751070E+06   0.0000000E+00
   0.1660000E+01   0.5301031E+06   0.2813452E+06   0.0000000E+00
   0.1640000E+01   0.5398019E+06   0.2883696E+06   0.0000000E+00
   0.1620000E+01   0.5497489E+06   0.2963336E+06   0.0000000E+00
   0.1600000E+01   0.5588876E+06   0.3049415E+06   0.0000000E+00
   0.1580000E+01   0.5670091E+06   0.3142490E+06   0.0000000E+00
   0.1560000E+01   0.5747688E+06   0.3244063E+06   0.0000000E+00
   0.1540000E+01   0.5817151E+06   0.3354703E+06   0.0000000E+00
   0.1520000E+01   0.5877359E+06   0.3474818E+06   0.0000000E+00
   0.1500000E+01   0.5927256E+06   0.3604689E+06   0.0000000E+00
   0.1480000E+01   0.5968941E+06   0.3745559E+06   0.0000000E+00
   0.1460000E+01   0.5994760E+06   0.3893154E+06   0.0000000E+00
   0.1440000E+01   0.6007234E+06   0.4049817E+06   0.0000000E+00
   0.1420000E+01   0.6004066E+06   0.4215759E+06   0.0000000E+00
   0.1400000E+01   0.5989766E+06   0.4394080E+06   0.0000000E+00
   0.1380000E+01   0.5952748E+06   0.4576278E+06   0.0000000E+00
   0.1360000E+01   0.5897058E+06   0.4764714E+06   0.0000000E+00
   0.1340000E+01   0.5823502E+06   0.4958503E+06   0.0000000E+00
   0.1320000E+01   0.5729768E+06   0.5156603E+06   0.0000000E+00
   0.1300000E+01   0.5614824E+06   0.5356514E+06   0.0000000E+00
   0.1280000E+01   0.5482790E+06   0.5561492E+06   0.0000000E+00
   0.1260000E+01   0.5328924E+06   0.5763130E+06   0.0000000E+00
   0.1240000E+01   0.5156126E+06   0.5960987E+06   0.0000000E+00
   0.1220000E+01   0.4967898E+06   0.6156871E+06   0.0000000E+00
   0.1200000E+01   0.4764093E+06   0.6345756E+06   0.0000000E+00
   0.1180000E+01   0.4543448E+06   0.6521512E+06   0.0000000E+00
   0.1160000E+01   0.4312153E+06   0.6687879E+06   0.0000000E+00
   0.1140000E+01   0.4070056E+06   0.6842326E+06   0.0000000E+00
   0.1120000E+01   0.3821144E+06   0.6983632E+06   0.0000000E+00
   0.1100000E+01   0.3568989E+06   0.7110363E+06   0.0000000E+00
   0.1080000E+01   0.3315498E+06   0.7219312E+06   0.0000000E+00
   0.1060000E+01   0.3063682E+06   0.7312661E+06   0.0000000E+00
   0.1040000E+01   0.2816678E+06   0.7391732E+06   0.0000000E+00
   0.1020000E+01   0.2574197E+06   0.7448647E+06   0.0000000E+00
   0.1000000E+01   0.2340105E+06   0.7490878E+06   0.0000000E+00
   0.9800000E+00   0.2114830E+06   0.7518334E+06   0.0000000E+00
   0.9600000E+00   0.1901492E+06   0.7534712E+06   0.0000000E+00
   0.9400000E+00   0.1700250E+06   0.7533298E+06   0.0000000E+00
   0.9200000E+00   0.1512417E+06   0.7520349E+06   0.0000000E+00
   0.9000000E+00   0.1338755E+06   0.7499189E+06   0.0000000E+00
   0.8800000E+00   0.1178395E+06   0.7462779E+06   0.0000000E+00
   0.8600000E+00   0.1031922E+06   0.7418397E+06   0.0000000E+00
   0.8400000E+00   0.8989495E+05   0.7367194E+06   0.0000000E+00
   0.8199999E+00   0.7790487E+05   0.7311368E+06   0.0000000E+00
   0.8000000E+00   0.6714243E+05   0.7250246E+06   0.0000000E+00
   0.7800000E+00   0.5755332E+05   0.7191978E+06   0.0000000E+00
   0.7600000E+00   0.4902857E+05   0.7125922E+06   0.0000000E+00
   0.7400000E+00   0.4152570E+05   0.7058119E+06   0.0000000E+00
   0.7200000E+00   0.3496778E+05   0.6991318E+06   0.0000000E+00
   0.6999999E+00   0.2926056E+05   0.6921258E+06   0.0000000E+00
   0.6800000E+00   0.2433682E+05   0.6856172E+06   0.0000000E+00
   0.6600000E+00   0.2009972E+05   0.6786486E+06   0.0000000E+00
   0.6400000E+00   0.1648509E+05   0.6718664E+06   0.0000000E+00
   0.6200000E+00   0.1342452E+05   0.6657982E+06   0.0000000E+00
   0.6000000E+00   0.1084524E+05   0.6598580E+06   0.0000000E+00
   0.5800000E+00   0.8690475E+04   0.6543541E+06   0.0000000E+00
   0.5600000E+00   0.6900537E+04   0.6486031E+06   0.0000000E+00
   0.5400000E+00   0.5428791E+04   0.6432701E+06   0.0000000E+00
   0.5200000E+00   0.4227793E+04   0.6379500E+06   0.0000000E+00
   0.5000000E+00   0.3258296E+04   0.6333679E+06   0.0000000E+00
   0.4800000E+00   0.2481927E+04   0.6290536E+06   0.0000000E+00
   0.4600000E+00   0.1866919E+04   0.6251115E+06   0.0000000E+00
   0.4400000E+00   0.1385255E+04   0.6214814E+06   0.0000000E+00
   0.4200000E+00   0.1012122E+04   0.6173829E+06   0.0000000E+00
   0.4000000E+00   0.7277161E+03   0.6138696E+06   0.0000000E+00
   0.3800000E+00   0.5141976E+03   0.6113830E+06   0.0000000E+00
   0.3600000E+00   0.3559502E+03   0.6083574E+06   0.0000000E+00
   0.3400000E+00   0.2410112E+03   0.6055686E+06   0.0000000E+00
   0.3200000E+00   0.1592102E+03   0.6030582E+06   0.0000000E+00
   0.3000000E+00   0.1023031E+03   0.6010636E+06   0.0000000E+00
   0.2800000E+00   0.6368126E+02   0.5992204E+06   0.0000000E+00
   0.2600000E+00   0.3820849E+02   0.5970998E+06   0.0000000E+00
   0.2400000E+00   0.2198966E+02   0.5956814E+06   0.0000000E+00
   0.2200000E+00   0.1203873E+02   0.5941380E+06   0.0000000E+00
   0.2000000E+00   0.6214156E+01   0.5923414E+06   0.0000000E+00
   0.1800000E+00   0.2991322E+01   0.5918507E+06   0.0000000E+00
   0.1600000E+00   0.1318280E+01   0.5901136E+06   0.0000000E+00
   0.1400000E+00   0.5209829E+00   0.5893915E+06   0.0000000E+00
   0.1200000E+00   0.1777624E+00   0.5872706E+06   0.0000000E+00
   0.9999999E-01   0.4910524E-01   0.5841464E+06   0.0000000E+00
   0.8000000E-01   0.9941875E-02   0.5810650E+06   0.0000000E+00
   0.6000000E-01   0.1484425E-02   0.5805223E+06   0.0000000E+00
   0.4000000E-01   0.4366070E-04   0.5803232E+06   0.0000000E+00
   0.2000000E-01   0.2335849E-06   0.5801692E+06   0.0000000E+00
Zone t="Force sur  1- Mvt de  1 13",I= 150,F=POINT
   0.3000000E+01  -0.7152557E-04   0.1662827E-01   0.0000000E+00
   0.2980000E+01  -0.1831055E-03   0.2469635E-01   0.0000000E+00
   0.2960000E+01  -0.1573563E-03   0.2089310E-01   0.0000000E+00
   0.2940000E+01  -0.2079010E-03   0.3517914E-01   0.0000000E+00
   0.2920000E+01  -0.1945496E-03  -0.8014679E-02   0.0000000E+00
   0.2900000E+01  -0.8583069E-04   0.2658844E-02   0.0000000E+00
   0.2880000E+01  -0.1907349E-04   0.3139114E-01   0.0000000E+00
   0.2860000E+01  -0.1487732E-03   0.1789856E-01   0.0000000E+00
   0.2840000E+01   0.2098083E-04   0.3287125E-01   0.0000000E+00
   0.2820000E+01   0.1106262E-03   0.2198410E-01   0.0000000E+00
   0.2800000E+01  -0.3623962E-04   0.2807617E-01   0.0000000E+00
   0.2780000E+01   0.3814697E-04   0.9414673E-02   0.0000000E+00
   0.2760000E+01  -0.3433228E-04   0.1999664E-01   0.0000000E+00
   0.2740000E+01  -0.5340576E-04  -0.2791595E-01   0.0000000E+00
   0.2720000E+01  -0.1335144E-04  -0.1595306E-01   0.0000000E+00
   0.2700000E+01   0.1230240E-03   0.1222992E-01   0.0000000E+00
   0.2680000E+01   0.4243851E-03  -0.7507324E-02   0.0000000E+00
   0.2660000E+01   0.1373291E-03   0.2291107E-01   0.0000000E+00
   0.2640000E+01   0.1130104E-03  -0.4478455E-02   0.0000000E+00
   0.2620000E+01   0.2565384E-03  -0.3097534E-02   0.0000000E+00
   0.2600000E+01   0.1392365E-03  -0.7209778E-02   0.0000000E+00
   0.2580000E+01   0.1068115E-03  -0.6660461E-02   0.0000000E+00
   0.2560000E+01   0.2536774E-03  -0.1795959E-01   0.0000000E+00
   0.2540000E+01  -0.1678467E-03  -0.1656342E-01   0.0000000E+00
   0.2520000E+01   0.1621246E-04  -0.2024078E-01   0.0000000E+00
   0.2500000E+01   0.1792908E-03  -0.6782532E-02   0.0000000E+00
   0.2480000E+01  -0.2613068E-03  -0.4928589E-02   0.0000000E+00
   0.2460000E+01   0.3051758E-03  -0.3997803E-02   0.0000000E+00
   0.2440000E+01   0.5531311E-04  -0.1159668E-01   0.0000000E+00
   0.2420000E+01  -0.6465912E-03   0.7034302E-02   0.0000000E+00
   0.2400000E+01  -0.1129150E-02  -0.1121521E-01   0.0000000E+00
   0.2380000E+01   0.3051758E-03   0.9376526E-02   0.0000000E+00
   0.2360000E+01   0.7629395E-05   0.1637268E-01   0.0000000E+00
   0.2340000E+01   0.9374619E-03  -0.4394531E-02   0.0000000E+00
   0.2320000E+01   0.1304150E-02  -0.1562500E-01   0.0000000E+00
   0.2300000E+01   0.1037836E-02  -0.4425049E-03   0.0000000E+00
   0.2280000E+01  -0.1525998E-02  -0.1075745E-01   0.0000000E+00
   0.2260000E+01  -0.4038215E-03  -0.2223206E-01   0.0000000E+00
   0.2240000E+01  -0.3340065E-02  -0.1815796E-01   0.0000000E+00
   0.2220000E+01   0.1662135E-02  -0.1081848E-01   0.0000000E+00
   0.2200000E+01   0.9413004E-02  -0.6958008E-02   0.0000000E+00
   0.2180000E+01   0.3265381E-02  -0.2456665E-01   0.0000000E+00
   0.2160000E+01   0.3814697E-02  -0.5661011E-02   0.0000000E+00
   0.2140000E+01   0.1806259E-02  -0.1942444E-01   0.0000000E+00
   0.2120000E+01  -0.9880066E-03   0.3082275E-02   0.0000000E+00
   0.2100000E+01   0.1678467E-03   0.3753662E-02   0.0000000E+00
   0.2080000E+01  -0.2979279E-02   0.1953125E-02   0.0000000E+00
   0.2060000E+01  -0.1644135E-02  -0.8102417E-02   0.0000000E+00
   0.2040000E+01  -0.1808167E-02  -0.1309204E-01   0.0000000E+00
   0.2020000E+01  -0.1266479E-02  -0.6607056E-02   0.0000000E+00
   0.2000000E+01  -0.5416870E-03   0.2102661E-01   0.0000000E+00
   0.1980000E+01   0.1792908E-02   0.1190186E-02   0.0000000E+00
   0.1960000E+01   0.3433228E-03   0.5874634E-02   0.0000000E+00
   0.1940000E+01  -0.9155273E-04   0.3067017E-02   0.0000000E+00
   0.1920000E+01  -0.1770020E-02   0.8697510E-02   0.0000000E+00
   0.1900000E+01   0.6866455E-03   0.4516602E-02   0.0000000E+00
   0.1880000E+01   0.3036499E-02  -0.8422852E-02   0.0000000E+00
   0.1860000E+01   0.2593994E-03   0.1150513E-01   0.0000000E+00
   0.1840000E+01  -0.1876831E-02   0.4089355E-02   0.0000000E+00
   0.1820000E+01  -0.1113892E-02   0.6072998E-02   0.0000000E+00
   0.1800000E+01   0.1220703E-03  -0.1831055E-03   0.0000000E+00
   0.1780000E+01   0.1342773E-02   0.5889893E-02   0.0000000E+00
   0.1760000E+01  -0.4287720E-02   0.9582520E-02   0.0000000E+00
   0.1740000E+01   0.1739502E-02  -0.7629395E-03   0.0000000E+00
   0.1720000E+01   0.5737305E-02  -0.1153564E-01   0.0000000E+00
   0.1700000E+01   0.2746582E-03  -0.4028320E-02   0.0000000E+00
   0.1680000E+01  -0.2014160E-02  -0.7293701E-02   0.0000000E+00
   0.1660000E+01   0.2288818E-02  -0.5126953E-02   0.0000000E+00
   0.1640000E+01  -0.7568359E-02  -0.8911133E-02   0.0000000E+00
   0.1620000E+01  -0.5981445E-02  -0.8666992E-02   0.0000000E+00
   0.1600000E+01  -0.5859375E-02   0.4272461E-02   0.0000000E+00
   0.1580000E+01  -0.5493164E-03  -0.1315308E-01   0.0000000E+00
   0.1560000E+01   0.9429932E-02   0.1986694E-01   0.0000000E+00
   0.1540000E+01   0.1132202E-01   0.4516602E-02   0.0000000E+00
   0.1520000E+01  -0.1803589E-01  -0.9216309E-02   0.0000000E+00
   0.1500000E+01   0.3753662E-02  -0.4577637E-03   0.0000000E+00
   0.1480000E+01  -0.5279541E-02  -0.7751465E-02   0.0000000E+00
   0.1460000E+01  -0.3601074E-02  -0.6591797E-02   0.0000000E+00
   0.1440000E+01   0.3173828E-02   0.7934570E-03   0.0000000E+00
   0.1420000E+01  -0.1342773E-02  -0.3051758E-04   0.0000000E+00
   0.1400000E+01   0.5065918E-02  -0.1110840E-01   0.0000000E+00
   0.1380000E+01  -0.7141113E-02  -0.9399414E-02   0.0000000E+00
   0.1360000E+01  -0.7080078E-02  -0.5737305E-02   0.0000000E+00
   0.1340000E+01  -0.2929688E-02  -0.2136230E-02   0.0000000E+00
   0.1320000E+01  -0.4577637E-02   0.3540039E-02   0.0000000E+00
   0.1300000E+01   0.1403809E-02  -0.1770020E-02   0.0000000E+00
   0.1280000E+01   0.9094238E-02   0.2166748E-01   0.0000000E+00
   0.1260000E+01   0.3051758E-02   0.6195068E-02   0.0000000E+00
   0.1240000E+01  -0.1245117E-01  -0.6256104E-02   0.0000000E+00
   0.1220000E+01   0.4821777E-02  -0.2349854E-02   0.0000000E+00
   0.1200000E+01  -0.1135254E-01  -0.5432129E-02   0.0000000E+00
   0.1180000E+01  -0.1269531E-01   0.5981445E-02   0.0000000E+00
   0.1160000E+01  -0.7690430E-02  -0.3509521E-02   0.0000000E+00
   0.1140000E+01   0.4089355E-02   0.4852295E-02   0.0000000E+00
   0.1120000E+01  -0.1190186E-01   0.8850098E-03   0.0000000E+00
   0.1100000E+01   0.3295898E-02  -0.1495361E-02   0.0000000E+00
   0.1080000E+01   0.1666260E-01   0.8697510E-02   0.0000000E+00
   0.1060000E+01   0.7263184E-02   0.1602173E-02   0.0000000E+00
   0.1040000E+01  -0.1831055E-01  -0.7034302E-02   0.0000000E+00
   0.1020000E+01   0.2160645E-01   0.1242065E-01   0.0000000E+00
   0.1000000E+01   0.3662109E-02   0.6469727E-02   0.0000000E+00
   0.9800000E+00   0.2258301E-02   0.2998352E-02   0.0000000E+00
   0.9600000E+00   0.1281738E-01  -0.6366730E-02   0.0000000E+00
   0.9400000E+00  -0.3009033E-01  -0.3051758E-04   0.0000000E+00
   0.9200000E+00   0.7934570E-02  -0.8288383E-02   0.0000000E+00
   0.9000000E+00  -0.1831055E-03   0.5714417E-02   0.0000000E+00
   0.8800000E+00  -0.2166748E-01  -0.2476501E-01   0.0000000E+00
   0.8600000E+00  -0.1507568E-01  -0.9002686E-02   0.0000000E+00
   0.8400000E+00  -0.8728027E-02  -0.1876831E-02   0.0000000E+00
   0.8199999E+00  -0.9033203E-02  -0.1780701E-01   0.0000000E+00
   0.8000000E+00  -0.2056885E-01  -0.5981445E-02   0.0000000E+00
   0.7800000E+00  -0.1525879E-01  -0.1062012E-01   0.0000000E+00
   0.7600000E+00  -0.1507568E-01  -0.4272461E-03   0.0000000E+00
   0.7400000E+00   0.7019043E-02   0.1425171E-01   0.0000000E+00
   0.7200000E+00   0.1660156E-01  -0.3533936E-01   0.0000000E+00
   0.6999999E+00  -0.1507568E-01   0.1458740E-01   0.0000000E+00
   0.6800000E+00   0.1531982E-01   0.9277344E-02   0.0000000E+00
   0.6600000E+00   0.8728027E-02  -0.8422852E-02   0.0000000E+00
   0.6400000E+00   0.1153564E-01   0.9887695E-02   0.0000000E+00
   0.6200000E+00   0.1458740E-01   0.4174805E-01   0.0000000E+00
   0.6000000E+00  -0.7019043E-02   0.2502441E-02   0.0000000E+00
   0.5800000E+00  -0.9155273E-03   0.3125000E-01   0.0000000E+00
   0.5600000E+00  -0.2752686E-01  -0.9521484E-02   0.0000000E+00
   0.5400000E+00   0.6927490E-02   0.1422119E-01   0.0000000E+00
   0.5200000E+00  -0.2044678E-02   0.2258301E-01   0.0000000E+00
   0.5000000E+00   0.5187988E-03  -0.4162598E-01   0.0000000E+00
   0.4800000E+00  -0.5828857E-02   0.3125000E-01   0.0000000E+00
   0.4600000E+00  -0.6774902E-02   0.2551270E-01   0.0000000E+00
   0.4400000E+00   0.1373291E-02   0.1501465E-01   0.0000000E+00
   0.4200000E+00  -0.4211426E-02   0.3784180E-01   0.0000000E+00
   0.4000000E+00   0.4364014E-02  -0.3381348E-01   0.0000000E+00
   0.3800000E+00   0.1861572E-02   0.1074219E-01   0.0000000E+00
   0.3600000E+00  -0.7263184E-02  -0.1074219E-01   0.0000000E+00
   0.3400000E+00   0.4501343E-02   0.1831055E-02   0.0000000E+00
   0.3200000E+00  -0.5035400E-03  -0.1171875E-01   0.0000000E+00
   0.3000000E+00   0.7476807E-03  -0.2478027E-01   0.0000000E+00
   0.2800000E+00   0.1678467E-03  -0.1000977E-01   0.0000000E+00
   0.2600000E+00  -0.4577637E-04  -0.7568359E-02   0.0000000E+00
   0.2400000E+00   0.3051758E-03  -0.2331543E-01   0.0000000E+00
   0.2200000E+00   0.2059937E-03  -0.3869629E-01   0.0000000E+00
   0.2000000E+00   0.1171112E-02   0.2624512E-01   0.0000000E+00
   0.1800000E+00  -0.8182526E-03   0.4455566E-01   0.0000000E+00
   0.1600000E+00   0.2899170E-03  -0.5371094E-02   0.0000000E+00
   0.1400000E+00   0.3223419E-03  -0.3088379E-01   0.0000000E+00
   0.1200000E+00   0.1907349E-03  -0.2319336E-01   0.0000000E+00
   0.9999999E-01   0.1668930E-04   0.2075195E-01   0.0000000E+00
   0.8000000E-01  -0.5507469E-04  -0.1208496E-01   0.0000000E+00
   0.6000000E-01   0.2431870E-04  -0.1098633E-02   0.0000000E+00
   0.4000000E-01  -0.3486872E-05  -0.5114746E-01   0.0000000E+00
   0.2000000E-01   0.2831221E-06   0.2929688E-02   0.0000000E+00
Zone t="Force sur  1- Mvt de  1 15",I= 150,F=POINT
   0.3000000E+01   0.6951524E+06   0.5075343E+06   0.0000000E+00
   0.2980000E+01   0.7077148E+06   0.5047833E+06   0.0000000E+00
   0.2960000E+01   0.7213419E+06   0.5024852E+06   0.0000000E+00
   0.2940000E+01   0.7353551E+06   0.5005917E+06   0.0000000E+00
   0.2920000E+01   0.7499917E+06   0.4989845E+06   0.0000000E+00
   0.2900000E+01   0.7652935E+06   0.4978296E+06   0.0000000E+00
   0.2880000E+01   0.7814344E+06   0.4979155E+06   0.0000000E+00
   0.2860000E+01   0.7938661E+06   0.4996421E+06   0.0000000E+00
   0.2840000E+01   0.8027065E+06   0.5034672E+06   0.0000000E+00
   0.2820000E+01   0.8079722E+06   0.5113454E+06   0.0000000E+00
   0.2800000E+01   0.7988526E+06   0.5278939E+06   0.0000000E+00
   0.2780000E+01   0.7283956E+06   0.5613959E+06   0.0000000E+00
   0.2760000E+01   0.3316296E+06   0.5892639E+06   0.0000000E+00
   0.2740000E+01   0.3272418E+06   0.2644558E+06   0.0000000E+00
   0.2720000E+01   0.8014099E+06   0.3029818E+06   0.0000000E+00
   0.2700000E+01   0.9026773E+06   0.3431258E+06   0.0000000E+00
   0.2680000E+01   0.9442774E+06   0.3617686E+06   0.0000000E+00
   0.2660000E+01   0.9710796E+06   0.3709839E+06   0.0000000E+00
   0.2640000E+01   0.9934064E+06   0.3755139E+06   0.0000000E+00
   0.2620000E+01   0.1015222E+07   0.3775922E+06   0.0000000E+00
   0.2600000E+01   0.1037506E+07   0.3784502E+06   0.0000000E+00
   0.2580000E+01   0.1058769E+07   0.3783595E+06   0.0000000E+00
   0.2560000E+01   0.1079944E+07   0.3775655E+06   0.0000000E+00
   0.2540000E+01   0.1101706E+07   0.3758132E+06   0.0000000E+00
   0.2520000E+01   0.1123698E+07   0.3736281E+06   0.0000000E+00
   0.2500000E+01   0.1146126E+07   0.3712932E+06   0.0000000E+00
   0.2480000E+01   0.1168902E+07   0.3687277E+06   0.0000000E+00
   0.2460000E+01   0.1192145E+07   0.3664143E+06   0.0000000E+00
   0.2440000E+01   0.1215883E+07   0.3640260E+06   0.0000000E+00
   0.2420000E+01   0.1240216E+07   0.3618329E+06   0.0000000E+00
   0.2400000E+01   0.1264566E+07   0.3593518E+06   0.0000000E+00
   0.2380000E+01   0.1289237E+07   0.3564063E+06   0.0000000E+00
   0.2360000E+01   0.1314649E+07   0.3535265E+06   0.0000000E+00
   0.2340000E+01   0.1340951E+07   0.3509690E+06   0.0000000E+00
   0.2320000E+01   0.1368061E+07   0.3487641E+06   0.0000000E+00
   0.2300000E+01   0.1396064E+07   0.3466617E+06   0.0000000E+00
   0.2280000E+01   0.1424799E+07   0.3446821E+06   0.0000000E+00
   0.2260000E+01   0.1452793E+07   0.3430829E+06   0.0000000E+00
   0.2240000E+01   0.1481196E+07   0.3419907E+06   0.0000000E+00
   0.2220000E+01   0.1510280E+07   0.3416737E+06   0.0000000E+00
   0.2200000E+01   0.1540914E+07   0.3411851E+06   0.0000000E+00
   0.2180000E+01   0.1572606E+07   0.3408725E+06   0.0000000E+00
   0.2160000E+01   0.1605131E+07   0.3411905E+06   0.0000000E+00
   0.2140000E+01   0.1637842E+07   0.3416874E+06   0.0000000E+00
   0.2120000E+01   0.1670392E+07   0.3429368E+06   0.0000000E+00
   0.2100000E+01   0.1703656E+07   0.3448003E+06   0.0000000E+00
   0.2080000E+01   0.1736420E+07   0.3470516E+06   0.0000000E+00
   0.2060000E+01   0.1770902E+07   0.3493428E+06   0.0000000E+00
   0.2040000E+01   0.1806438E+07   0.3526255E+06   0.0000000E+00
   0.2020000E+01   0.1842026E+07   0.3571123E+06   0.0000000E+00
   0.2000000E+01   0.1878274E+07   0.3625728E+06   0.0000000E+00
   0.1980000E+01   0.1915583E+07   0.3690712E+06   0.0000000E+00
   0.1960000E+01   0.1952636E+07   0.3762356E+06   0.0000000E+00
   0.1940000E+01   0.1988950E+07   0.3844490E+06   0.0000000E+00
   0.1920000E+01   0.2024844E+07   0.3943741E+06   0.0000000E+00
   0.1900000E+01   0.2062788E+07   0.4053786E+06   0.0000000E+00
   0.1880000E+01   0.2101253E+07   0.4177870E+06   0.0000000E+00
   0.1860000E+01   0.2139674E+07   0.4316206E+06   0.0000000E+00
   0.1840000E+01   0.2176884E+07   0.4467922E+06   0.0000000E+00
   0.1820000E+01   0.2214059E+07   0.4638032E+06   0.0000000E+00
   0.1800000E+01   0.2249719E+07   0.4820826E+06   0.0000000E+00
   0.1780000E+01   0.2286260E+07   0.5020846E+06   0.0000000E+00
   0.1760000E+01   0.2322227E+07   0.5245821E+06   0.0000000E+00
   0.1740000E+01   0.2356512E+07   0.5493078E+06   0.0000000E+00
   0.1720000E+01   0.2390643E+07   0.5767011E+06   0.0000000E+00
   0.1700000E+01   0.2423596E+07   0.6064621E+06   0.0000000E+00
   0.1680000E+01   0.2453744E+07   0.6381569E+06   0.0000000E+00
   0.1660000E+01   0.2481274E+07   0.6727034E+06   0.0000000E+00
   0.1640000E+01   0.2508464E+07   0.7103888E+06   0.0000000E+00
   0.1620000E+01   0.2533580E+07   0.7511322E+06   0.0000000E+00
   0.1600000E+01   0.2555572E+07   0.7946255E+06   0.0000000E+00
   0.1580000E+01   0.2574166E+07   0.8412919E+06   0.0000000E+00
   0.1560000E+01   0.2588088E+07   0.8901354E+06   0.0000000E+00
   0.1540000E+01   0.2599277E+07   0.9424048E+06   0.0000000E+00
   0.1520000E+01   0.2606182E+07   0.9984420E+06   0.0000000E+00
   0.1500000E+01   0.2608436E+07   0.1057972E+07   0.0000000E+00
   0.1480000E+01   0.2606039E+07   0.1120915E+07   0.0000000E+00
   0.1460000E+01   0.2597004E+07   0.1185911E+07   0.0000000E+00
   0.1440000E+01   0.2581376E+07   0.1253581E+07   0.0000000E+00
   0.1420000E+01   0.2560448E+07   0.1324770E+07   0.0000000E+00
   0.1400000E+01   0.2533482E+07   0.1398881E+07   0.0000000E+00
   0.1380000E+01   0.2498631E+07   0.1474595E+07   0.0000000E+00
   0.1360000E+01   0.2456324E+07   0.1551683E+07   0.0000000E+00
   0.1340000E+01   0.2406614E+07   0.1628780E+07   0.0000000E+00
   0.1320000E+01   0.2349965E+07   0.1707203E+07   0.0000000E+00
   0.1300000E+01   0.2285614E+07   0.1785464E+07   0.0000000E+00
   0.1280000E+01   0.2214851E+07   0.1864061E+07   0.0000000E+00
   0.1260000E+01   0.2136403E+07   0.1940003E+07   0.0000000E+00
   0.1240000E+01   0.2051471E+07   0.2013479E+07   0.0000000E+00
   0.1220000E+01   0.1961767E+07   0.2084758E+07   0.0000000E+00
   0.1200000E+01   0.1867118E+07   0.2151916E+07   0.0000000E+00
   0.1180000E+01   0.1767804E+07   0.2214142E+07   0.0000000E+00
   0.1160000E+01   0.1665395E+07   0.2270468E+07   0.0000000E+00
   0.1140000E+01   0.1560782E+07   0.2322782E+07   0.0000000E+00
   0.1120000E+01   0.1455074E+07   0.2369422E+07   0.0000000E+00
   0.1100000E+01   0.1349518E+07   0.2409282E+07   0.0000000E+00
   0.1080000E+01   0.1244777E+07   0.2441404E+07   0.0000000E+00
   0.1060000E+01   0.1142327E+07   0.2467812E+07   0.0000000E+00
   0.1040000E+01   0.1042952E+07   0.2487727E+07   0.0000000E+00
   0.1020000E+01   0.9468058E+06   0.2500570E+07   0.0000000E+00
   0.1000000E+01   0.8549777E+06   0.2507152E+07   0.0000000E+00
   0.9800000E+00   0.7677730E+06   0.2510246E+07   0.0000000E+00
   0.9600000E+00   0.6859712E+06   0.2508826E+07   0.0000000E+00
   0.9400000E+00   0.6095313E+06   0.2500334E+07   0.0000000E+00
   0.9200000E+00   0.5388538E+06   0.2487914E+07   0.0000000E+00
   0.9000000E+00   0.4740572E+06   0.2471794E+07   0.0000000E+00
   0.8800000E+00   0.4147834E+06   0.2451127E+07   0.0000000E+00
   0.8600000E+00   0.3610957E+06   0.2427174E+07   0.0000000E+00
   0.8400000E+00   0.3127479E+06   0.2401740E+07   0.0000000E+00
   0.8199999E+00   0.2694980E+06   0.2374726E+07   0.0000000E+00
   0.8000000E+00   0.2309677E+06   0.2346898E+07   0.0000000E+00
   0.7800000E+00   0.1969245E+06   0.2321361E+07   0.0000000E+00
   0.7600000E+00   0.1668907E+06   0.2294254E+07   0.0000000E+00
   0.7400000E+00   0.1406364E+06   0.2266012E+07   0.0000000E+00
   0.7200000E+00   0.1178374E+06   0.2238122E+07   0.0000000E+00
   0.6999999E+00   0.9812347E+05   0.2208632E+07   0.0000000E+00
   0.6800000E+00   0.8122392E+05   0.2180859E+07   0.0000000E+00
   0.6600000E+00   0.6677265E+05   0.2152436E+07   0.0000000E+00
   0.6400000E+00   0.5451898E+05   0.2124815E+07   0.0000000E+00
   0.6200000E+00   0.4420643E+05   0.2101862E+07   0.0000000E+00
   0.6000000E+00   0.3556504E+05   0.2079859E+07   0.0000000E+00
   0.5800000E+00   0.2838393E+05   0.2058449E+07   0.0000000E+00
   0.5600000E+00   0.2244961E+05   0.2035412E+07   0.0000000E+00
   0.5400000E+00   0.1759454E+05   0.2014026E+07   0.0000000E+00
   0.5200000E+00   0.1365188E+05   0.1992555E+07   0.0000000E+00
   0.5000000E+00   0.1048450E+05   0.1974723E+07   0.0000000E+00
   0.4800000E+00   0.7959826E+04   0.1959875E+07   0.0000000E+00
   0.4600000E+00   0.5968172E+04   0.1945196E+07   0.0000000E+00
   0.4400000E+00   0.4414681E+04   0.1930216E+07   0.0000000E+00
   0.4200000E+00   0.3216006E+04   0.1913561E+07   0.0000000E+00
   0.4000000E+00   0.2305819E+04   0.1899637E+07   0.0000000E+00
   0.3800000E+00   0.1624990E+04   0.1891865E+07   0.0000000E+00
   0.3600000E+00   0.1122047E+04   0.1880796E+07   0.0000000E+00
   0.3400000E+00   0.7579067E+03   0.1868865E+07   0.0000000E+00
   0.3200000E+00   0.4995399E+03   0.1857947E+07   0.0000000E+00
   0.3000000E+00   0.3203215E+03   0.1852426E+07   0.0000000E+00
   0.2800000E+00   0.1989933E+03   0.1845125E+07   0.0000000E+00
   0.2600000E+00   0.1191703E+03   0.1835290E+07   0.0000000E+00
   0.2400000E+00   0.6846397E+02   0.1831196E+07   0.0000000E+00
   0.2200000E+00   0.3742768E+02   0.1825112E+07   0.0000000E+00
   0.2000000E+00   0.1929486E+02   0.1816148E+07   0.0000000E+00
   0.1800000E+00   0.9278667E+01   0.1816432E+07   0.0000000E+00
   0.1600000E+00   0.4085267E+01   0.1806398E+07   0.0000000E+00
   0.1400000E+00   0.1611253E+01   0.1805458E+07   0.0000000E+00
   0.1200000E+00   0.5483165E+00   0.1796501E+07   0.0000000E+00
   0.9999999E-01   0.1519115E+00   0.1784496E+07   0.0000000E+00
   0.8000000E-01   0.3104082E-01   0.1776563E+07   0.0000000E+00
   0.6000000E-01   0.4579775E-02   0.1777749E+07   0.0000000E+00
   0.4000000E-01   0.1419474E-03   0.1773447E+07   0.0000000E+00
   0.2000000E-01   0.7653731E-06   0.1772974E+07   0.0000000E+00
Zone t="Force sur  1- Mvt de  1 22",I= 150,F=POINT
   0.3000000E+01   0.1078128E+06   0.3000517E+06   0.0000000E+00
   0.2980000E+01   0.1099938E+06   0.2992747E+06   0.0000000E+00
   0.2960000E+01   0.1123513E+06   0.2984843E+06   0.0000000E+00
   0.2940000E+01   0.1148576E+06   0.2976684E+06   0.0000000E+00
   0.2920000E+01   0.1175447E+06   0.2969813E+06   0.0000000E+00
   0.2900000E+01   0.1204222E+06   0.2964093E+06   0.0000000E+00
   0.2880000E+01   0.1234824E+06   0.2959400E+06   0.0000000E+00