VARIABLES="X","Y","Z","PRE1","PRE2","POMOD"
ZONE I=  2500,J=  2401,F=FEPOINT
 -0.2000000E+03 -0.2000000E+03  0.0000000E+00 -0.2537241E-01  0.7886820E-02  0.2656993E-01
 -0.2000000E+03 -0.1918367E+03  0.0000000E+00 -0.1850465E-01  0.1977415E-01  0.2708207E-01
 -0.2000000E+03 -0.1836735E+03  0.0000000E+00 -0.6734243E-02  0.2677206E-01  0.2760603E-01
 -0.2000000E+03 -0.1755102E+03  0.0000000E+00  0.6888916E-02  0.2728506E-01  0.2814128E-01
 -0.2000000E+03 -0.1673469E+03  0.0000000E+00  0.1909165E-01  0.2140979E-01  0.2868572E-01
 -0.2000000E+03 -0.1591837E+03  0.0000000E+00  0.2720441E-01  0.1071735E-01  0.2923939E-01
 -0.2000000E+03 -0.1510204E+03  0.0000000E+00  0.2971041E-01 -0.2308250E-02  0.2979994E-01
 -0.2000000E+03 -0.1428571E+03  0.0000000E+00  0.2642690E-01 -0.1495633E-01  0.3036565E-01
 -0.2000000E+03 -0.1346939E+03  0.0000000E+00  0.1833925E-01 -0.2491183E-01  0.3093424E-01
 -0.2000000E+03 -0.1265306E+03  0.0000000E+00  0.7200787E-02 -0.3066915E-01  0.3150315E-01
 -0.2000000E+03 -0.1183673E+03  0.0000000E+00 -0.4955569E-02 -0.3168420E-01  0.3206939E-01
 -0.2000000E+03 -0.1102041E+03  0.0000000E+00 -0.1626012E-01 -0.2828925E-01  0.3262933E-01
 -0.2000000E+03 -0.1020408E+03  0.0000000E+00 -0.2531521E-01 -0.2144745E-01  0.3317911E-01
 -0.2000000E+03 -0.9387756E+02  0.0000000E+00 -0.3133527E-01 -0.1244128E-01  0.3371476E-01
 -0.2000000E+03 -0.8571428E+02  0.0000000E+00 -0.3413409E-01 -0.2578611E-02  0.3423135E-01
 -0.2000000E+03 -0.7755102E+02  0.0000000E+00 -0.3400604E-01  0.7025375E-02  0.3472415E-01
 -0.2000000E+03 -0.6938776E+02  0.0000000E+00 -0.3155503E-01  0.1557155E-01  0.3518797E-01
 -0.2000000E+03 -0.6122449E+02  0.0000000E+00 -0.2752276E-01  0.2260789E-01  0.3561768E-01
 -0.2000000E+03 -0.5306122E+02  0.0000000E+00 -0.2264782E-01  0.2799352E-01  0.3600779E-01
 -0.2000000E+03 -0.4489796E+02  0.0000000E+00 -0.1757394E-01  0.3182357E-01  0.3635358E-01
 -0.2000000E+03 -0.3673470E+02  0.0000000E+00 -0.1280372E-01  0.3434069E-01  0.3664994E-01
 -0.2000000E+03 -0.2857143E+02  0.0000000E+00 -0.8693594E-02  0.3585380E-01  0.3689273E-01
 -0.2000000E+03 -0.2040817E+02  0.0000000E+00 -0.5472206E-02  0.3667227E-01  0.3707830E-01
 -0.2000000E+03 -0.1224489E+02  0.0000000E+00 -0.3271226E-02  0.3705958E-01  0.3720367E-01
 -0.2000000E+03 -0.4081635E+01  0.0000000E+00 -0.2157381E-02  0.3720437E-01  0.3726687E-01
 -0.2000000E+03  0.4081635E+01  0.0000000E+00 -0.2157373E-02  0.3720438E-01  0.3726688E-01
 -0.2000000E+03  0.1224489E+02  0.0000000E+00 -0.3271220E-02  0.3705958E-01  0.3720367E-01
 -0.2000000E+03  0.2040816E+02  0.0000000E+00 -0.5472185E-02  0.3667227E-01  0.3707830E-01
 -0.2000000E+03  0.2857144E+02  0.0000000E+00 -0.8693605E-02  0.3585380E-01  0.3689273E-01
 -0.2000000E+03  0.3673470E+02  0.0000000E+00 -0.1280372E-01  0.3434070E-01  0.3664995E-01
 -0.2000000E+03  0.4489796E+02  0.0000000E+00 -0.1757394E-01  0.3182357E-01  0.3635358E-01
 -0.2000000E+03  0.5306122E+02  0.0000000E+00 -0.2264782E-01  0.2799351E-01  0.3600778E-01
 -0.2000000E+03  0.6122449E+02  0.0000000E+00 -0.2752276E-01  0.2260789E-01  0.3561768E-01
 -0.2000000E+03  0.6938776E+02  0.0000000E+00 -0.3155503E-01  0.1557155E-01  0.3518797E-01
 -0.2000000E+03  0.7755103E+02  0.0000000E+00 -0.3400604E-01  0.7025379E-02  0.3472415E-01
 -0.2000000E+03  0.8571429E+02  0.0000000E+00 -0.3413410E-01 -0.2578607E-02  0.3423136E-01
 -0.2000000E+03  0.9387756E+02  0.0000000E+00 -0.3133527E-01 -0.1244128E-01  0.3371476E-01
 -0.2000000E+03  0.1020408E+03  0.0000000E+00 -0.2531537E-01 -0.2144749E-01  0.3317925E-01
 -0.2000000E+03  0.1102041E+03  0.0000000E+00 -0.1626013E-01 -0.2828924E-01  0.3262933E-01
 -0.2000000E+03  0.1183673E+03  0.0000000E+00 -0.4955560E-02 -0.3168420E-01  0.3206939E-01
 -0.2000000E+03  0.1265306E+03  0.0000000E+00  0.7200780E-02 -0.3066916E-01  0.3150315E-01
 -0.2000000E+03  0.1346939E+03  0.0000000E+00  0.1833925E-01 -0.2491183E-01  0.3093424E-01
 -0.2000000E+03  0.1428571E+03  0.0000000E+00  0.2642690E-01 -0.1495632E-01  0.3036565E-01
 -0.2000000E+03  0.1510204E+03  0.0000000E+00  0.2971041E-01 -0.2308251E-02  0.2979995E-01
 -0.2000000E+03  0.1591837E+03  0.0000000E+00  0.2720443E-01  0.1071731E-01  0.2923938E-01
 -0.2000000E+03  0.1673469E+03  0.0000000E+00  0.1909166E-01  0.2140979E-01  0.2868572E-01
 -0.2000000E+03  0.1755102E+03  0.0000000E+00  0.6888842E-02  0.2728472E-01  0.2814093E-01
 -0.2000000E+03  0.1836735E+03  0.0000000E+00 -0.6734256E-02  0.2677205E-01  0.2760603E-01
 -0.2000000E+03  0.1918367E+03  0.0000000E+00 -0.1850465E-01  0.1977415E-01  0.2708208E-01
 -0.2000000E+03  0.2000000E+03  0.0000000E+00 -0.2537241E-01  0.7886818E-02  0.2656993E-01
 -0.1918367E+03 -0.2000000E+03  0.0000000E+00 -0.1814443E-01  0.1944800E-01  0.2659783E-01
 -0.1918367E+03 -0.1918367E+03  0.0000000E+00 -0.5991536E-02  0.2645947E-01  0.2712936E-01
 -0.1918367E+03 -0.1836735E+03  0.0000000E+00  0.8025656E-02  0.2648630E-01  0.2767554E-01
 -0.1918367E+03 -0.1755102E+03  0.0000000E+00  0.2023854E-01  0.1968534E-01  0.2823316E-01
 -0.1918367E+03 -0.1673469E+03  0.0000000E+00  0.2768910E-01  0.7937058E-02  0.2880422E-01
 -0.1918367E+03 -0.1591837E+03  0.0000000E+00  0.2880115E-01 -0.5830425E-02  0.2938538E-01
 -0.1918367E+03 -0.1510204E+03  0.0000000E+00  0.2360196E-01 -0.1848019E-01  0.2997615E-01
 -0.1918367E+03 -0.1428571E+03  0.0000000E+00  0.1349764E-01 -0.2743362E-01  0.3057434E-01
 -0.1918367E+03 -0.1346939E+03  0.0000000E+00  0.7546097E-03 -0.3116858E-01  0.3117772E-01
 -0.1918367E+03 -0.1265306E+03  0.0000000E+00 -0.1212989E-01 -0.2937768E-01  0.3178336E-01
 -0.1918367E+03 -0.1183673E+03  0.0000000E+00 -0.2298539E-01 -0.2281850E-01  0.3238846E-01
 -0.1918367E+03 -0.1102041E+03  0.0000000E+00 -0.3033723E-01 -0.1295827E-01  0.3298885E-01
 -0.1918367E+03 -0.1020408E+03  0.0000000E+00 -0.3354497E-01 -0.1548065E-02  0.3358068E-01
 -0.1918367E+03 -0.9387756E+02  0.0000000E+00 -0.3273471E-01  0.9761355E-02  0.3415912E-01
 -0.1918367E+03 -0.8571428E+02  0.0000000E+00 -0.2859749E-01  0.1968770E-01  0.3471918E-01
 -0.1918367E+03 -0.7755102E+02  0.0000000E+00 -0.2213185E-01  0.2744275E-01  0.3525512E-01
 -0.1918367E+03 -0.6938776E+02  0.0000000E+00 -0.1440348E-01  0.3273238E-01  0.3576128E-01
 -0.1918367E+03 -0.6122449E+02  0.0000000E+00 -0.6363164E-02  0.3566855E-01  0.3623169E-01
 -0.1918367E+03 -0.5306122E+02  0.0000000E+00  0.1256611E-02  0.3663854E-01  0.3666009E-01
 -0.1918367E+03 -0.4489796E+02  0.0000000E+00  0.7973749E-02  0.3617219E-01  0.3704063E-01
 -0.1918367E+03 -0.3673470E+02  0.0000000E+00  0.1353525E-01  0.3483023E-01  0.3736774E-01
 -0.1918367E+03 -0.2857143E+02  0.0000000E+00  0.1786358E-01  0.3312667E-01  0.3763621E-01
 -0.1918367E+03 -0.2040817E+02  0.0000000E+00  0.2099262E-01  0.3148507E-01  0.3784178E-01
 -0.1918367E+03 -0.1224489E+02  0.0000000E+00  0.2300588E-01  0.3022028E-01  0.3798073E-01
 -0.1918367E+03 -0.4081635E+01  0.0000000E+00  0.2398726E-01  0.2953774E-01  0.3805085E-01
 -0.1918367E+03  0.4081635E+01  0.0000000E+00  0.2398726E-01  0.2953774E-01  0.3805084E-01
 -0.1918367E+03  0.1224489E+02  0.0000000E+00  0.2300588E-01  0.3022028E-01  0.3798073E-01
 -0.1918367E+03  0.2040816E+02  0.0000000E+00  0.2099261E-01  0.3148508E-01  0.3784178E-01
 -0.1918367E+03  0.2857144E+02  0.0000000E+00  0.1786357E-01  0.3312668E-01  0.3763621E-01
 -0.1918367E+03  0.3673470E+02  0.0000000E+00  0.1353524E-01  0.3483024E-01  0.3736775E-01
 -0.1918367E+03  0.4489796E+02  0.0000000E+00  0.7973740E-02  0.3617219E-01  0.3704063E-01
 -0.1918367E+03  0.5306122E+02  0.0000000E+00  0.1256611E-02  0.3663854E-01  0.3666009E-01
 -0.1918367E+03  0.6122449E+02  0.0000000E+00 -0.6363180E-02  0.3566854E-01  0.3623169E-01
 -0.1918367E+03  0.6938776E+02  0.0000000E+00 -0.1440348E-01  0.3273238E-01  0.3576128E-01
 -0.1918367E+03  0.7755103E+02  0.0000000E+00 -0.2213184E-01  0.2744271E-01  0.3525508E-01
 -0.1918367E+03  0.8571429E+02  0.0000000E+00 -0.2859749E-01  0.1968769E-01  0.3471918E-01
 -0.1918367E+03  0.9387756E+02  0.0000000E+00 -0.3273471E-01  0.9761351E-02  0.3415912E-01
 -0.1918367E+03  0.1020408E+03  0.0000000E+00 -0.3354498E-01 -0.1548069E-02  0.3358068E-01
 -0.1918367E+03  0.1102041E+03  0.0000000E+00 -0.3033725E-01 -0.1295821E-01  0.3298884E-01
 -0.1918367E+03  0.1183673E+03  0.0000000E+00 -0.2298536E-01 -0.2281847E-01  0.3238841E-01
 -0.1918367E+03  0.1265306E+03  0.0000000E+00 -0.1212990E-01 -0.2937767E-01  0.3178336E-01
 -0.1918367E+03  0.1346939E+03  0.0000000E+00  0.7546088E-03 -0.3116858E-01  0.3117772E-01
 -0.1918367E+03  0.1428571E+03  0.0000000E+00  0.1349764E-01 -0.2743362E-01  0.3057433E-01
 -0.1918367E+03  0.1510204E+03  0.0000000E+00  0.2360196E-01 -0.1848018E-01  0.2997615E-01
 -0.1918367E+03  0.1591837E+03  0.0000000E+00  0.2880115E-01 -0.5830484E-02  0.2938538E-01
 -0.1918367E+03  0.1673469E+03  0.0000000E+00  0.2768910E-01  0.7937062E-02  0.2880422E-01
 -0.1918367E+03  0.1755102E+03  0.0000000E+00  0.2023850E-01  0.1968537E-01  0.2823315E-01
 -0.1918367E+03  0.1836735E+03  0.0000000E+00  0.8025658E-02  0.2648630E-01  0.2767554E-01
 -0.1918367E+03  0.1918367E+03  0.0000000E+00 -0.5991536E-02  0.2645947E-01  0.2712935E-01
 -0.1918367E+03  0.2000000E+03  0.0000000E+00 -0.1814442E-01  0.1944800E-01  0.2659783E-01
 -0.1836735E+03 -0.2000000E+03  0.0000000E+00 -0.6410830E-02  0.2582279E-01  0.2660668E-01
 -0.1836735E+03 -0.1918367E+03  0.0000000E+00  0.7916648E-02  0.2597856E-01  0.2715804E-01
 -0.1836735E+03 -0.1836735E+03  0.0000000E+00  0.2034790E-01  0.1883285E-01  0.2772568E-01
 -0.1836735E+03 -0.1755102E+03  0.0000000E+00  0.2756175E-01  0.6457347E-02  0.2830808E-01
 -0.1836735E+03 -0.1673469E+03  0.0000000E+00  0.2782654E-01 -0.7822468E-02  0.2890515E-01
 -0.1836735E+03 -0.1591837E+03  0.0000000E+00  0.2129354E-01 -0.2043924E-01  0.2951572E-01
 -0.1836735E+03 -0.1510204E+03  0.0000000E+00  0.9742516E-02 -0.2851970E-01  0.3013785E-01
 -0.1836735E+03 -0.1428571E+03  0.0000000E+00 -0.4060735E-02 -0.3050112E-01  0.3077024E-01
 -0.1836735E+03 -0.1346939E+03  0.0000000E+00 -0.1715353E-01 -0.2631292E-01  0.3141040E-01
 -0.1836735E+03 -0.1265306E+03  0.0000000E+00 -0.2707421E-01 -0.1716212E-01  0.3205544E-01
 -0.1836735E+03 -0.1183673E+03  0.0000000E+00 -0.3230894E-01 -0.5055415E-02  0.3270207E-01
 -0.1836735E+03 -0.1102041E+03  0.0000000E+00 -0.3242975E-01  0.7765334E-02  0.3334650E-01
 -0.1836735E+03 -0.1020408E+03  0.0000000E+00 -0.2796086E-01  0.1931609E-01  0.3398414E-01
 -0.1836735E+03 -0.9387756E+02  0.0000000E+00 -0.2007245E-01  0.2819461E-01  0.3460982E-01
 -0.1836735E+03 -0.8571428E+02  0.0000000E+00 -0.1021587E-01  0.3370369E-01  0.3521793E-01
 -0.1836735E+03 -0.7755102E+02  0.0000000E+00  0.2017878E-03  0.3580146E-01  0.3580203E-01
 -0.1836735E+03 -0.6938776E+02  0.0000000E+00  0.1004364E-01  0.3494108E-01  0.3635593E-01
 -0.1836735E+03 -0.6122449E+02  0.0000000E+00  0.1855384E-01  0.3186408E-01  0.3687227E-01
 -0.1836735E+03 -0.5306122E+02  0.0000000E+00  0.2536360E-01  0.2740951E-01  0.3734425E-01
 -0.1836735E+03 -0.4489796E+02  0.0000000E+00  0.3042803E-01  0.2236736E-01  0.3776458E-01
 -0.1836735E+03 -0.3673470E+02  0.0000000E+00  0.3392835E-01  0.1739329E-01  0.3812688E-01
 -0.1836735E+03 -0.2857143E+02  0.0000000E+00  0.3616752E-01  0.1297636E-01  0.3842494E-01
 -0.1836735E+03 -0.2040817E+02  0.0000000E+00  0.3748129E-01  0.9446846E-02  0.3865346E-01
 -0.1836735E+03 -0.1224489E+02  0.0000000E+00  0.3817056E-01  0.7006114E-02  0.3880821E-01
 -0.1836735E+03 -0.4081635E+01  0.0000000E+00  0.3845702E-01  0.5762929E-02  0.3888642E-01
 -0.1836735E+03  0.4081635E+01  0.0000000E+00  0.3845702E-01  0.5762933E-02  0.3888642E-01
 -0.1836735E+03  0.1224489E+02  0.0000000E+00  0.3817056E-01  0.7006114E-02  0.3880821E-01
 -0.1836735E+03  0.2040816E+02  0.0000000E+00  0.3748129E-01  0.9446796E-02  0.3865344E-01
 -0.1836735E+03  0.2857144E+02  0.0000000E+00  0.3616752E-01  0.1297638E-01  0.3842494E-01
 -0.1836735E+03  0.3673470E+02  0.0000000E+00  0.3392834E-01  0.1739331E-01  0.3812689E-01
 -0.1836735E+03  0.4489796E+02  0.0000000E+00  0.3042802E-01  0.2236737E-01  0.3776458E-01
 -0.1836735E+03  0.5306122E+02  0.0000000E+00  0.2536360E-01  0.2740951E-01  0.3734425E-01
 -0.1836735E+03  0.6122449E+02  0.0000000E+00  0.1855383E-01  0.3186408E-01  0.3687227E-01
 -0.1836735E+03  0.6938776E+02  0.0000000E+00  0.1004364E-01  0.3494108E-01  0.3635593E-01
 -0.1836735E+03  0.7755103E+02  0.0000000E+00  0.2017859E-03  0.3580146E-01  0.3580203E-01
 -0.1836735E+03  0.8571429E+02  0.0000000E+00 -0.1021584E-01  0.3370358E-01  0.3521782E-01
 -0.1836735E+03  0.9387756E+02  0.0000000E+00 -0.2007245E-01  0.2819461E-01  0.3460982E-01
 -0.1836735E+03  0.1020408E+03  0.0000000E+00 -0.2796077E-01  0.1931608E-01  0.3398405E-01
 -0.1836735E+03  0.1102041E+03  0.0000000E+00 -0.3242974E-01  0.7765329E-02  0.3334649E-01
 -0.1836735E+03  0.1183673E+03  0.0000000E+00 -0.3230895E-01 -0.5055412E-02  0.3270207E-01
 -0.1836735E+03  0.1265306E+03  0.0000000E+00 -0.2707422E-01 -0.1716213E-01  0.3205545E-01
 -0.1836735E+03  0.1346939E+03  0.0000000E+00 -0.1715354E-01 -0.2631292E-01  0.3141040E-01
 -0.1836735E+03  0.1428571E+03  0.0000000E+00 -0.4060737E-02 -0.3050112E-01  0.3077025E-01
 -0.1836735E+03  0.1510204E+03  0.0000000E+00  0.9742515E-02 -0.2851970E-01  0.3013785E-01
 -0.1836735E+03  0.1591837E+03  0.0000000E+00  0.2129350E-01 -0.2043929E-01  0.2951572E-01
 -0.1836735E+03  0.1673469E+03  0.0000000E+00  0.2782654E-01 -0.7822464E-02  0.2890515E-01
 -0.1836735E+03  0.1755102E+03  0.0000000E+00  0.2756212E-01  0.6457492E-02  0.2830847E-01
 -0.1836735E+03  0.1836735E+03  0.0000000E+00  0.2034790E-01  0.1883284E-01  0.2772567E-01
 -0.1836735E+03  0.1918367E+03  0.0000000E+00  0.7916640E-02  0.2597856E-01  0.2715803E-01
 -0.1836735E+03  0.2000000E+03  0.0000000E+00 -0.6410829E-02  0.2582280E-01  0.2660668E-01
 -0.1755102E+03 -0.2000000E+03  0.0000000E+00  0.6632520E-02  0.2575561E-01  0.2659590E-01
 -0.1755102E+03 -0.1918367E+03  0.0000000E+00  0.1953521E-01  0.1887909E-01  0.2716698E-01
 -0.1755102E+03 -0.1836735E+03  0.0000000E+00  0.2703481E-01  0.6286989E-02  0.2775621E-01
 -0.1755102E+03 -0.1755102E+03  0.0000000E+00  0.2709647E-01 -0.8381467E-02  0.2836314E-01
 -0.1755102E+03 -0.1673469E+03  0.0000000E+00  0.1985430E-01 -0.2112000E-01  0.2898702E-01
 -0.1755102E+03 -0.1591837E+03  0.0000000E+00  0.7366672E-02 -0.2869703E-01  0.2962748E-01
 -0.1755102E+03 -0.1510204E+03  0.0000000E+00 -0.7138234E-02 -0.2942915E-01  0.3028249E-01
 -0.1755102E+03 -0.1428571E+03  0.0000000E+00 -0.2022639E-01 -0.2342711E-01  0.3095054E-01
 -0.1755102E+03 -0.1346939E+03  0.0000000E+00 -0.2912783E-01 -0.1232867E-01  0.3162952E-01
 -0.1755102E+03 -0.1265306E+03  0.0000000E+00 -0.3228972E-01  0.1312220E-02  0.3231637E-01
 -0.1755102E+03 -0.1183673E+03  0.0000000E+00 -0.2952885E-01  0.1475010E-01  0.3300785E-01
 -0.1755102E+03 -0.1102041E+03  0.0000000E+00 -0.2182565E-01  0.2567713E-01  0.3369976E-01
 -0.1755102E+03 -0.1020408E+03  0.0000000E+00 -0.1089360E-01  0.3261625E-01  0.3438736E-01
 -0.1755102E+03 -0.9387756E+02  0.0000000E+00  0.1317849E-02  0.3504035E-01  0.3506512E-01
 -0.1755102E+03 -0.8571428E+02  0.0000000E+00  0.1305086E-01  0.3325745E-01  0.3572650E-01
 -0.1755102E+03 -0.7755102E+02  0.0000000E+00  0.2301772E-01  0.2815264E-01  0.3636463E-01
 -0.1755102E+03 -0.6938776E+02  0.0000000E+00  0.3050829E-01  0.2088463E-01  0.3697193E-01
 -0.1755102E+03 -0.6122449E+02  0.0000000E+00  0.3535648E-01  0.1261786E-01  0.3754053E-01
 -0.1755102E+03 -0.5306122E+02  0.0000000E+00  0.3781412E-01  0.4337545E-02  0.3806208E-01
 -0.1755102E+03 -0.4489796E+02  0.0000000E+00  0.3839165E-01 -0.3242237E-02  0.3852831E-01
 -0.1755102E+03 -0.3673470E+02  0.0000000E+00  0.3770658E-01 -0.9687636E-02  0.3893117E-01
 -0.1755102E+03 -0.2857143E+02  0.0000000E+00  0.3636689E-01 -0.1480098E-01  0.3926346E-01
 -0.1755102E+03 -0.2040817E+02  0.0000000E+00  0.3489587E-01 -0.1854760E-01  0.3951879E-01
 -0.1755102E+03 -0.1224489E+02  0.0000000E+00  0.3369410E-01 -0.2098003E-01  0.3969199E-01
 -0.1755102E+03 -0.4081635E+01  0.0000000E+00  0.3302744E-01 -0.2217189E-01  0.3977945E-01
 -0.1755102E+03  0.4081635E+01  0.0000000E+00  0.3302744E-01 -0.2217189E-01  0.3977945E-01
 -0.1755102E+03  0.1224489E+02  0.0000000E+00  0.3369410E-01 -0.2098003E-01  0.3969199E-01
 -0.1755102E+03  0.2040816E+02  0.0000000E+00  0.3489587E-01 -0.1854761E-01  0.3951880E-01
 -0.1755102E+03  0.2857144E+02  0.0000000E+00  0.3636688E-01 -0.1480099E-01  0.3926346E-01
 -0.1755102E+03  0.3673470E+02  0.0000000E+00  0.3770658E-01 -0.9687640E-02  0.3893117E-01
 -0.1755102E+03  0.4489796E+02  0.0000000E+00  0.3839165E-01 -0.3242239E-02  0.3852831E-01
 -0.1755102E+03  0.5306122E+02  0.0000000E+00  0.3781413E-01  0.4337549E-02  0.3806209E-01
 -0.1755102E+03  0.6122449E+02  0.0000000E+00  0.3535648E-01  0.1261787E-01  0.3754053E-01
 -0.1755102E+03  0.6938776E+02  0.0000000E+00  0.3050829E-01  0.2088463E-01  0.3697193E-01
 -0.1755102E+03  0.7755103E+02  0.0000000E+00  0.2301771E-01  0.2815264E-01  0.3636463E-01
 -0.1755102E+03  0.8571429E+02  0.0000000E+00  0.1305088E-01  0.3325734E-01  0.3572640E-01
 -0.1755102E+03  0.9387756E+02  0.0000000E+00  0.1317775E-02  0.3504036E-01  0.3506513E-01
 -0.1755102E+03  0.1020408E+03  0.0000000E+00 -0.1089360E-01  0.3261625E-01  0.3438736E-01
 -0.1755102E+03  0.1102041E+03  0.0000000E+00 -0.2182563E-01  0.2567714E-01  0.3369976E-01
 -0.1755102E+03  0.1183673E+03  0.0000000E+00 -0.2952882E-01  0.1475015E-01  0.3300785E-01
 -0.1755102E+03  0.1265306E+03  0.0000000E+00 -0.3228972E-01  0.1312224E-02  0.3231637E-01
 -0.1755102E+03  0.1346939E+03  0.0000000E+00 -0.2912783E-01 -0.1232867E-01  0.3162952E-01
 -0.1755102E+03  0.1428571E+03  0.0000000E+00 -0.2022639E-01 -0.2342711E-01  0.3095054E-01
 -0.1755102E+03  0.1510204E+03  0.0000000E+00 -0.7138234E-02 -0.2942915E-01  0.3028249E-01
 -0.1755102E+03  0.1591837E+03  0.0000000E+00  0.7366680E-02 -0.2869704E-01  0.2962749E-01
 -0.1755102E+03  0.1673469E+03  0.0000000E+00  0.1985425E-01 -0.2112004E-01  0.2898702E-01
 -0.1755102E+03  0.1755102E+03  0.0000000E+00  0.2709646E-01 -0.8381465E-02  0.2836313E-01
 -0.1755102E+03  0.1836735E+03  0.0000000E+00  0.2703481E-01  0.6286992E-02  0.2775621E-01
 -0.1755102E+03  0.1918367E+03  0.0000000E+00  0.1953521E-01  0.1887910E-01  0.2716698E-01
 -0.1755102E+03  0.2000000E+03  0.0000000E+00  0.6632520E-02  0.2575561E-01  0.2659590E-01
 -0.1673469E+03 -0.2000000E+03  0.0000000E+00  0.1780601E-01  0.1971058E-01  0.2656240E-01
 -0.1673469E+03 -0.1918367E+03  0.0000000E+00  0.2613852E-01  0.7352915E-02  0.2715304E-01
 -0.1673469E+03 -0.1836735E+03  0.0000000E+00  0.2670220E-01 -0.7603627E-02  0.2776369E-01
 -0.1673469E+03 -0.1755102E+03  0.0000000E+00  0.1941300E-01 -0.2072216E-01  0.2839494E-01
 -0.1673469E+03 -0.1673469E+03  0.0000000E+00  0.6454327E-02 -0.2832051E-01  0.2904668E-01
 -0.1673469E+03 -0.1591837E+03  0.0000000E+00 -0.8550794E-02 -0.2846018E-01  0.2971697E-01
 -0.1673469E+03 -0.1510204E+03  0.0000000E+00 -0.2168601E-01 -0.2131336E-01  0.3040629E-01
 -0.1673469E+03 -0.1428571E+03  0.0000000E+00 -0.2981872E-01 -0.8875825E-02  0.3111168E-01
 -0.1673469E+03 -0.1346939E+03  0.0000000E+00 -0.3130423E-01  0.5768594E-02  0.3183129E-01
 -0.1673469E+03 -0.1265306E+03  0.0000000E+00 -0.2618251E-01  0.1936013E-01  0.3256284E-01
 -0.1673469E+03 -0.1183673E+03  0.0000000E+00 -0.1590539E-01  0.2925827E-01  0.3330207E-01
 -0.1673469E+03 -0.1102041E+03  0.0000000E+00 -0.2768754E-02  0.3393275E-01  0.3404552E-01
 -0.1673469E+03 -0.1020408E+03  0.0000000E+00  0.1074779E-01  0.3308574E-01  0.3478766E-01
 -0.1673469E+03 -0.9387756E+02  0.0000000E+00  0.2253322E-01  0.2746073E-01  0.3552235E-01
 -0.1673469E+03 -0.8571428E+02  0.0000000E+00  0.3118793E-01  0.1846266E-01  0.3624302E-01
 -0.1673469E+03 -0.7755102E+02  0.0000000E+00  0.3612392E-01  0.7728878E-02  0.3694148E-01
 -0.1673469E+03 -0.6938776E+02  0.0000000E+00  0.3747033E-01 -0.3231442E-02  0.3760941E-01
 -0.1673469E+03 -0.6122449E+02  0.0000000E+00  0.3586075E-01 -0.1327049E-01  0.3823741E-01
 -0.1673469E+03 -0.5306122E+02  0.0000000E+00  0.3218883E-01 -0.2169203E-01  0.3881579E-01
 -0.1673469E+03 -0.4489796E+02  0.0000000E+00  0.2739472E-01 -0.2822674E-01  0.3933471E-01
 -0.1673469E+03 -0.3673470E+02  0.0000000E+00  0.2231687E-01 -0.3293608E-01  0.3978477E-01
 -0.1673469E+03 -0.2857143E+02  0.0000000E+00  0.1761698E-01 -0.3608641E-01  0.4015703E-01
 -0.1673469E+03 -0.2040817E+02  0.0000000E+00  0.1376433E-01 -0.3802942E-01  0.4044371E-01
 -0.1673469E+03 -0.1224489E+02  0.0000000E+00  0.1105871E-01 -0.3910496E-01  0.4063856E-01
 -0.1673469E+03 -0.4081635E+01  0.0000000E+00  0.9668911E-02 -0.3957295E-01  0.4073704E-01
 -0.1673469E+03  0.4081635E+01  0.0000000E+00  0.9668916E-02 -0.3957295E-01  0.4073704E-01
 -0.1673469E+03  0.1224489E+02  0.0000000E+00  0.1105870E-01 -0.3910496E-01  0.4063857E-01
 -0.1673469E+03  0.2040816E+02  0.0000000E+00  0.1376431E-01 -0.3802940E-01  0.4044368E-01
 -0.1673469E+03  0.2857144E+02  0.0000000E+00  0.1761707E-01 -0.3608644E-01  0.4015710E-01
 -0.1673469E+03  0.3673470E+02  0.0000000E+00  0.2231686E-01 -0.3293609E-01  0.3978477E-01
 -0.1673469E+03  0.4489796E+02  0.0000000E+00  0.2739472E-01 -0.2822674E-01  0.3933471E-01
 -0.1673469E+03  0.5306122E+02  0.0000000E+00  0.3218883E-01 -0.2169202E-01  0.3881577E-01
 -0.1673469E+03  0.6122449E+02  0.0000000E+00  0.3586076E-01 -0.1327049E-01  0.3823742E-01
 -0.1673469E+03  0.6938776E+02  0.0000000E+00  0.3747033E-01 -0.3231445E-02  0.3760941E-01
 -0.1673469E+03  0.7755103E+02  0.0000000E+00  0.3612390E-01  0.7728936E-02  0.3694148E-01
 -0.1673469E+03  0.8571429E+02  0.0000000E+00  0.3118791E-01  0.1846269E-01  0.3624303E-01
 -0.1673469E+03  0.9387756E+02  0.0000000E+00  0.2253324E-01  0.2746078E-01  0.3552241E-01
 -0.1673469E+03  0.1020408E+03  0.0000000E+00  0.1074779E-01  0.3308575E-01  0.3478767E-01
 -0.1673469E+03  0.1102041E+03  0.0000000E+00 -0.2768779E-02  0.3393268E-01  0.3404546E-01
 -0.1673469E+03  0.1183673E+03  0.0000000E+00 -0.1590533E-01  0.2925830E-01  0.3330207E-01
 -0.1673469E+03  0.1265306E+03  0.0000000E+00 -0.2618251E-01  0.1936014E-01  0.3256284E-01
 -0.1673469E+03  0.1346939E+03  0.0000000E+00 -0.3130423E-01  0.5768597E-02  0.3183129E-01
 -0.1673469E+03  0.1428571E+03  0.0000000E+00 -0.2981873E-01 -0.8875830E-02  0.3111169E-01
 -0.1673469E+03  0.1510204E+03  0.0000000E+00 -0.2168600E-01 -0.2131336E-01  0.3040629E-01
 -0.1673469E+03  0.1591837E+03  0.0000000E+00 -0.8550799E-02 -0.2846018E-01  0.2971697E-01
 -0.1673469E+03  0.1673469E+03  0.0000000E+00  0.6454325E-02 -0.2832051E-01  0.2904668E-01
 -0.1673469E+03  0.1755102E+03  0.0000000E+00  0.1941301E-01 -0.2072216E-01  0.2839494E-01
 -0.1673469E+03  0.1836735E+03  0.0000000E+00  0.2670219E-01 -0.7603628E-02  0.2776369E-01
 -0.1673469E+03  0.1918367E+03  0.0000000E+00  0.2613853E-01  0.7352911E-02  0.2715304E-01
 -0.1673469E+03  0.2000000E+03  0.0000000E+00  0.1780601E-01  0.1971058E-01  0.2656240E-01
 -0.1591837E+03 -0.2000000E+03  0.0000000E+00  0.2473893E-01  0.9510998E-02  0.2650422E-01
 -0.1591837E+03 -0.1918367E+03  0.0000000E+00  0.2653757E-01 -0.5558926E-02  0.2711354E-01
 -0.1591837E+03 -0.1836735E+03  0.0000000E+00  0.1991695E-01 -0.1931717E-01  0.2774595E-01
 -0.1591837E+03 -0.1755102E+03  0.0000000E+00  0.6964577E-02 -0.2753465E-01  0.2840180E-01
 -0.1591837E+03 -0.1673469E+03  0.0000000E+00 -0.8418175E-02 -0.2783574E-01  0.2908082E-01
 -0.1591837E+03 -0.1591837E+03  0.0000000E+00 -0.2182907E-01 -0.2026003E-01  0.2978216E-01
 -0.1591837E+03 -0.1510204E+03  0.0000000E+00 -0.2968397E-01 -0.7031344E-02  0.3050537E-01
 -0.1591837E+03 -0.1428571E+03  0.0000000E+00 -0.3013024E-01  0.8289015E-02  0.3124963E-01
 -0.1591837E+03 -0.1346939E+03  0.0000000E+00 -0.2333815E-01  0.2191100E-01  0.3201189E-01
 -0.1591837E+03 -0.1265306E+03  0.0000000E+00 -0.1119483E-01  0.3082000E-01  0.3279020E-01
 -0.1591837E+03 -0.1183673E+03  0.0000000E+00  0.3415784E-02  0.3340663E-01  0.3358080E-01
 -0.1591837E+03 -0.1102041E+03  0.0000000E+00  0.1745705E-01  0.2961783E-01  0.3437971E-01
 -0.1591837E+03 -0.1020408E+03  0.0000000E+00  0.2845692E-01  0.2068627E-01  0.3518122E-01
 -0.1591837E+03 -0.9387756E+02  0.0000000E+00  0.3493408E-01  0.8607398E-02  0.3597885E-01
 -0.1591837E+03 -0.8571428E+02  0.0000000E+00  0.3649542E-01 -0.4444875E-02  0.3676510E-01
 -0.1591837E+03 -0.7755102E+02  0.0000000E+00  0.3366185E-01 -0.1659793E-01  0.3753147E-01
 -0.1591837E+03 -0.6938776E+02  0.0000000E+00  0.2754006E-01 -0.2656986E-01  0.3826764E-01
 -0.1591837E+03 -0.6122449E+02  0.0000000E+00  0.1946610E-01 -0.3375236E-01  0.3896346E-01
 -0.1591837E+03 -0.5306122E+02  0.0000000E+00  0.1070695E-01 -0.3813252E-01  0.3960717E-01
 -0.1591837E+03 -0.4489796E+02  0.0000000E+00  0.2275893E-02 -0.4012283E-01  0.4018733E-01
 -0.1591837E+03 -0.3673470E+02  0.0000000E+00 -0.5140334E-02 -0.4036642E-01  0.4069240E-01
 -0.1591837E+03 -0.2857143E+02  0.0000000E+00 -0.1116246E-01 -0.3956708E-01  0.4111149E-01
 -0.1591837E+03 -0.2040817E+02  0.0000000E+00 -0.1564552E-01 -0.3836792E-01  0.4143525E-01
 -0.1591837E+03 -0.1224489E+02  0.0000000E+00 -0.1858587E-01 -0.3727939E-01  0.4165558E-01
 -0.1591837E+03 -0.4081635E+01  0.0000000E+00 -0.2003480E-01 -0.3664841E-01  0.4176720E-01
 -0.1591837E+03  0.4081635E+01  0.0000000E+00 -0.2003481E-01 -0.3664841E-01  0.4176721E-01
 -0.1591837E+03  0.1224489E+02  0.0000000E+00 -0.1858585E-01 -0.3727940E-01  0.4165558E-01
 -0.1591837E+03  0.2040816E+02  0.0000000E+00 -0.1564551E-01 -0.3836792E-01  0.4143525E-01
 -0.1591837E+03  0.2857144E+02  0.0000000E+00 -0.1116247E-01 -0.3956708E-01  0.4111149E-01
 -0.1591837E+03  0.3673470E+02  0.0000000E+00 -0.5140334E-02 -0.4036642E-01  0.4069240E-01
 -0.1591837E+03  0.4489796E+02  0.0000000E+00  0.2275897E-02 -0.4012283E-01  0.4018733E-01
 -0.1591837E+03  0.5306122E+02  0.0000000E+00  0.1070697E-01 -0.3813251E-01  0.3960717E-01
 -0.1591837E+03  0.6122449E+02  0.0000000E+00  0.1946610E-01 -0.3375236E-01  0.3896346E-01
 -0.1591837E+03  0.6938776E+02  0.0000000E+00  0.2754007E-01 -0.2656986E-01  0.3826765E-01
 -0.1591837E+03  0.7755103E+02  0.0000000E+00  0.3366185E-01 -0.1659793E-01  0.3753147E-01
 -0.1591837E+03  0.8571429E+02  0.0000000E+00  0.3649542E-01 -0.4444810E-02  0.3676510E-01
 -0.1591837E+03  0.9387756E+02  0.0000000E+00  0.3493408E-01  0.8607395E-02  0.3597885E-01
 -0.1591837E+03  0.1020408E+03  0.0000000E+00  0.2845692E-01  0.2068628E-01  0.3518122E-01
 -0.1591837E+03  0.1102041E+03  0.0000000E+00  0.1745711E-01  0.2961779E-01  0.3437971E-01
 -0.1591837E+03  0.1183673E+03  0.0000000E+00  0.3415776E-02  0.3340663E-01  0.3358080E-01
 -0.1591837E+03  0.1265306E+03  0.0000000E+00 -0.1119483E-01  0.3082000E-01  0.3279020E-01
 -0.1591837E+03  0.1346939E+03  0.0000000E+00 -0.2333815E-01  0.2191099E-01  0.3201189E-01
 -0.1591837E+03  0.1428571E+03  0.0000000E+00 -0.3013024E-01  0.8289015E-02  0.3124963E-01
 -0.1591837E+03  0.1510204E+03  0.0000000E+00 -0.2968397E-01 -0.7031347E-02  0.3050537E-01
 -0.1591837E+03  0.1591837E+03  0.0000000E+00 -0.2182910E-01 -0.2025998E-01  0.2978215E-01
 -0.1591837E+03  0.1673469E+03  0.0000000E+00 -0.8418162E-02 -0.2783574E-01  0.2908082E-01
 -0.1591837E+03  0.1755102E+03  0.0000000E+00  0.6964637E-02 -0.2753464E-01  0.2840181E-01
 -0.1591837E+03  0.1836735E+03  0.0000000E+00  0.1991694E-01 -0.1931717E-01  0.2774595E-01
 -0.1591837E+03  0.1918367E+03  0.0000000E+00  0.2653757E-01 -0.5558926E-02  0.2711354E-01
 -0.1591837E+03  0.2000000E+03  0.0000000E+00  0.2473894E-01  0.9510994E-02  0.2650423E-01
 -0.1510204E+03 -0.2000000E+03  0.0000000E+00  0.2631749E-01 -0.2313275E-02  0.2641896E-01
 -0.1510204E+03 -0.1918367E+03  0.0000000E+00  0.2114998E-01 -0.1685729E-01  0.2704607E-01
 -0.1510204E+03 -0.1836735E+03  0.0000000E+00  0.8768481E-02 -0.2627496E-01  0.2769946E-01
 -0.1510204E+03 -0.1755102E+03  0.0000000E+00 -0.6839504E-02 -0.2754261E-01  0.2837912E-01
 -0.1510204E+03 -0.1673469E+03  0.0000000E+00 -0.2081941E-01 -0.2031004E-01  0.2908514E-01
 -0.1510204E+03 -0.1591837E+03  0.0000000E+00 -0.2902775E-01 -0.6817363E-02  0.2981756E-01
 -0.1510204E+03 -0.1510204E+03  0.0000000E+00 -0.2922348E-01  0.8994993E-02  0.3057649E-01
 -0.1510204E+03 -0.1428571E+03  0.0000000E+00 -0.2153802E-01  0.2279372E-01  0.3135984E-01
 -0.1510204E+03 -0.1346939E+03  0.0000000E+00 -0.8185751E-02  0.3110769E-01  0.3216667E-01
 -0.1510204E+03 -0.1265306E+03  0.0000000E+00  0.7387884E-02  0.3215650E-01  0.3299427E-01
 -0.1510204E+03 -0.1183673E+03  0.0000000E+00  0.2156476E-01  0.2607819E-01  0.3383949E-01
 -0.1510204E+03 -0.1102041E+03  0.0000000E+00  0.3147732E-01  0.1459775E-01  0.3469749E-01
 -0.1510204E+03 -0.1020408E+03  0.0000000E+00  0.3556173E-01  0.3447141E-03  0.3556339E-01
 -0.1510204E+03 -0.9387756E+02  0.0000000E+00  0.3366529E-01 -0.1392125E-01  0.3643011E-01
 -0.1510204E+03 -0.8571428E+02  0.0000000E+00  0.2678539E-01 -0.2594303E-01  0.3728938E-01
 -0.1510204E+03 -0.7755102E+02  0.0000000E+00  0.1659732E-01 -0.3432997E-01  0.3813159E-01
 -0.1510204E+03 -0.6938776E+02  0.0000000E+00  0.4948549E-02 -0.3862976E-01  0.3894543E-01
 -0.1510204E+03 -0.6122449E+02  0.0000000E+00 -0.6545765E-02 -0.3917572E-01  0.3971881E-01
 -0.1510204E+03 -0.5306122E+02  0.0000000E+00 -0.1673815E-01 -0.3681141E-01  0.4043817E-01
 -0.1510204E+03 -0.4489796E+02  0.0000000E+00 -0.2501171E-01 -0.3260013E-01  0.4108959E-01
 -0.1510204E+03 -0.3673470E+02  0.0000000E+00 -0.3121465E-01 -0.2758883E-01  0.4165931E-01
 -0.1510204E+03 -0.2857143E+02  0.0000000E+00 -0.3552097E-01 -0.2266104E-01  0.4213386E-01
 -0.1510204E+03 -0.2040817E+02  0.0000000E+00 -0.3827505E-01 -0.1847709E-01  0.4250155E-01
 -0.1510204E+03 -0.1224489E+02  0.0000000E+00 -0.3985233E-01 -0.1547736E-01  0.4275227E-01
 -0.1510204E+03 -0.4081635E+01  0.0000000E+00 -0.4055744E-01 -0.1391962E-01  0.4287961E-01
 -0.1510204E+03  0.4081635E+01  0.0000000E+00 -0.4055744E-01 -0.1391962E-01  0.4287961E-01
 -0.1510204E+03  0.1224489E+02  0.0000000E+00 -0.3985233E-01 -0.1547734E-01  0.4275227E-01
 -0.1510204E+03  0.2040816E+02  0.0000000E+00 -0.3827510E-01 -0.1847703E-01  0.4250158E-01