 TITLE = "C+SL"
 VARIABLES = "X","Y","Z","PRE1","PRE2","POMOD"
 ZONE T= "CARENE",I=         596 ,J=         560 ,F=FEPOINT
  8.33773E-43 -5.00000E+00  0.00000E+00 -6.30551E-02 -7.12007E-01  7.14794E-01
  8.33773E-43 -5.00000E+00  0.00000E+00 -6.57004E-02 -7.49703E-01  7.52576E-01
  8.33773E-43 -5.00000E+00  0.00000E+00 -6.79728E-02 -7.78062E-01  7.81025E-01
  8.33773E-43 -5.00000E+00  0.00000E+00 -7.04795E-02 -8.07840E-01  8.10909E-01
  8.33773E-43 -5.00000E+00  0.00000E+00 -7.32856E-02 -8.40369E-01  8.43558E-01
  8.33773E-43 -5.00000E+00  0.00000E+00 -7.64170E-02 -8.75969E-01  8.79296E-01
  8.33773E-43 -5.00000E+00  0.00000E+00 -7.98884E-02 -9.14997E-01  9.18478E-01
  8.33773E-43 -5.00000E+00  2.50000E+00 -8.17115E-02 -9.35411E-01  9.38973E-01
 -5.00000E-01 -4.50000E+00  2.50000E+00 -1.41782E-01 -7.23717E-01  7.37474E-01
 -5.00000E-01 -4.50000E+00  2.50000E+00 -1.69296E-01 -7.51126E-01  7.69968E-01
 -5.00000E-01 -4.50000E+00  2.50000E+00 -1.88453E-01 -7.80612E-01  8.03038E-01
 -5.00000E-01 -4.50000E+00  2.50000E+00 -2.02291E-01 -8.11001E-01  8.35850E-01
 -5.00000E-01 -4.50000E+00  2.50000E+00 -2.14442E-01 -8.43938E-01  8.70757E-01
 -5.00000E-01 -4.50000E+00  2.50000E+00 -2.25919E-01 -8.79842E-01  9.08384E-01
 -5.00000E-01 -4.50000E+00  2.50000E+00 -2.36677E-01 -9.19097E-01  9.49082E-01
 -5.00000E-01 -4.50000E+00  2.50000E+00 -2.41797E-01 -9.39605E-01  9.70218E-01
 -1.00000E+00 -4.00000E+00  2.50000E+00 -1.93593E-01 -7.17523E-01  7.43181E-01
 -1.00000E+00 -4.00000E+00  2.50000E+00 -2.35412E-01 -7.46020E-01  7.82282E-01
 -1.00000E+00 -4.00000E+00  2.50000E+00 -2.63570E-01 -7.76054E-01  8.19591E-01
 -1.00000E+00 -4.00000E+00  2.50000E+00 -2.84180E-01 -8.06654E-01  8.55248E-01
 -1.00000E+00 -4.00000E+00  2.50000E+00 -3.02079E-01 -8.39623E-01  8.92310E-01
 -1.00000E+00 -4.00000E+00  2.50000E+00 -3.18748E-01 -8.75445E-01  9.31668E-01
 -1.00000E+00 -4.00000E+00  2.50000E+00 -3.34435E-01 -9.14571E-01  9.73800E-01
 -1.00000E+00 -4.00000E+00  2.50000E+00 -3.41985E-01 -9.35008E-01  9.95587E-01
 -1.50000E+00 -3.50000E+00  2.50000E+00 -2.40181E-01 -7.10767E-01  7.50251E-01
 -1.50000E+00 -3.50000E+00  2.50000E+00 -2.90056E-01 -7.39234E-01  7.94103E-01
 -1.50000E+00 -3.50000E+00  2.50000E+00 -3.23686E-01 -7.69014E-01  8.34359E-01
 -1.50000E+00 -3.50000E+00  2.50000E+00 -3.49060E-01 -7.99417E-01  8.72302E-01
 -1.50000E+00 -3.50000E+00  2.50000E+00 -3.71284E-01 -8.32152E-01  9.11224E-01
 -1.50000E+00 -3.50000E+00  2.50000E+00 -3.92009E-01 -8.67682E-01  9.52126E-01
 -1.50000E+00 -3.50000E+00  2.50000E+00 -4.11684E-01 -9.06484E-01  9.95589E-01
 -1.50000E+00 -3.50000E+00  2.50000E+00 -4.21238E-01 -9.26756E-01  1.01800E+00
 -2.00000E+00 -3.00000E+00  2.50000E+00 -2.83304E-01 -7.03524E-01  7.58424E-01
 -2.00000E+00 -3.00000E+00  2.50000E+00 -3.38948E-01 -7.31244E-01  8.05980E-01
 -2.00000E+00 -3.00000E+00  2.50000E+00 -3.76230E-01 -7.60337E-01  8.48328E-01
 -2.00000E+00 -3.00000E+00  2.50000E+00 -4.05101E-01 -7.90263E-01  8.88044E-01
 -2.00000E+00 -3.00000E+00  2.50000E+00 -4.30726E-01 -8.22563E-01  9.28512E-01
 -2.00000E+00 -3.00000E+00  2.50000E+00 -4.54773E-01 -8.57646E-01  9.70760E-01
 -2.00000E+00 -3.00000E+00  2.50000E+00 -4.77801E-01 -8.95996E-01  1.01543E+00
 -2.00000E+00 -3.00000E+00  2.50000E+00 -4.89057E-01 -9.16043E-01  1.03842E+00
 -2.50000E+00 -2.50000E+00  2.50000E+00 -3.23754E-01 -6.95858E-01  7.67486E-01
 -2.50000E+00 -2.50000E+00  2.50000E+00 -3.83697E-01 -7.22325E-01  8.17910E-01
 -2.50000E+00 -2.50000E+00  2.50000E+00 -4.23427E-01 -7.50464E-01  8.61677E-01
 -2.50000E+00 -2.50000E+00  2.50000E+00 -4.54856E-01 -7.79721E-01  9.02695E-01
 -2.50000E+00 -2.50000E+00  2.50000E+00 -4.83126E-01 -8.11439E-01  9.44375E-01
 -2.50000E+00 -2.50000E+00  2.50000E+00 -5.09845E-01 -8.45963E-01  9.87722E-01
 -2.50000E+00 -2.50000E+00  2.50000E+00 -5.35603E-01 -8.83763E-01  1.03340E+00
 -2.50000E+00 -2.50000E+00  2.50000E+00 -5.48250E-01 -9.03538E-01  1.05686E+00
 -3.00000E+00 -2.00000E+00  2.50000E+00 -3.61968E-01 -6.87884E-01  7.77307E-01
 -3.00000E+00 -2.00000E+00  2.50000E+00 -4.24969E-01 -7.12715E-01  8.29796E-01
 -3.00000E+00 -2.00000E+00  2.50000E+00 -4.66195E-01 -7.39739E-01  8.74387E-01
 -3.00000E+00 -2.00000E+00  2.50000E+00 -4.99423E-01 -7.68204E-01  9.16275E-01
 -3.00000E+00 -2.00000E+00  2.50000E+00 -5.29708E-01 -7.99247E-01  9.58846E-01
 -3.00000E+00 -2.00000E+00  2.50000E+00 -5.58548E-01 -8.33132E-01  1.00304E+00
 -3.00000E+00 -2.00000E+00  2.50000E+00 -5.86508E-01 -8.70304E-01  1.04949E+00
 -3.00000E+00 -2.00000E+00  2.50000E+00 -6.00279E-01 -8.89769E-01  1.07332E+00
 -3.50000E+00 -1.50000E+00  2.50000E+00 -3.98198E-01 -6.79780E-01  7.87821E-01
 -3.50000E+00 -1.50000E+00  2.50000E+00 -4.62972E-01 -7.02683E-01  8.41490E-01
 -3.50000E+00 -1.50000E+00  2.50000E+00 -5.04793E-01 -7.28506E-01  8.86306E-01
 -3.50000E+00 -1.50000E+00  2.50000E+00 -5.39111E-01 -7.56117E-01  9.28630E-01
 -3.50000E+00 -1.50000E+00  2.50000E+00 -5.70853E-01 -7.86431E-01  9.71775E-01
 -3.50000E+00 -1.50000E+00  2.50000E+00 -6.01416E-01 -8.19643E-01  1.01662E+00
 -3.50000E+00 -1.50000E+00  2.50000E+00 -6.31344E-01 -8.56154E-01  1.06376E+00
 -3.50000E+00 -1.50000E+00  2.50000E+00 -6.46164E-01 -8.75290E-01  1.08796E+00
 -4.00000E+00 -1.00000E+00  2.50000E+00 -4.32759E-01 -6.71852E-01  7.99166E-01
 -4.00000E+00 -1.00000E+00  2.50000E+00 -4.97716E-01 -6.92610E-01  8.52895E-01
 -4.00000E+00 -1.00000E+00  2.50000E+00 -5.39150E-01 -7.17218E-01  8.97264E-01
 -4.00000E+00 -1.00000E+00  2.50000E+00 -5.73843E-01 -7.43968E-01  9.39566E-01
 -4.00000E+00 -1.00000E+00  2.50000E+00 -6.06465E-01 -7.73550E-01  9.82944E-01
 -4.00000E+00 -1.00000E+00  2.50000E+00 -6.38272E-01 -8.06087E-01  1.02819E+00
 -4.00000E+00 -1.00000E+00  2.50000E+00 -6.69784E-01 -8.41931E-01  1.07585E+00
 -4.00000E+00 -1.00000E+00  2.50000E+00 -6.85488E-01 -8.60731E-01  1.10034E+00
 -4.50000E+00 -5.00000E-01  2.50000E+00 -4.66328E-01 -6.64734E-01  8.11994E-01
 -4.50000E+00 -5.00000E-01  2.50000E+00 -5.28921E-01 -6.83190E-01  8.64006E-01
 -4.50000E+00 -5.00000E-01  2.50000E+00 -5.68637E-01 -7.06602E-01  9.06992E-01
 -4.50000E+00 -5.00000E-01  2.50000E+00 -6.02966E-01 -7.32540E-01  9.48780E-01
 -4.50000E+00 -5.00000E-01  2.50000E+00 -6.35916E-01 -7.61441E-01  9.92059E-01
 -4.50000E+00 -5.00000E-01  2.50000E+00 -6.68446E-01 -7.93353E-01  1.03741E+00
 -4.50000E+00 -5.00000E-01  2.50000E+00 -7.00988E-01 -8.28569E-01  1.08532E+00
 -4.50000E+00 -5.00000E-01  2.50000E+00 -7.17288E-01 -8.47048E-01  1.10995E+00
 -5.00000E+00 -8.33773E-43  2.50000E+00 -4.82980E-01 -6.61488E-01  8.19046E-01
 -5.00000E+00 -8.33773E-43  2.50000E+00 -5.43574E-01 -6.78758E-01  8.69589E-01
 -5.00000E+00 -8.33773E-43  2.50000E+00 -5.82027E-01 -7.01578E-01  9.11574E-01
 -5.00000E+00 -8.33773E-43  2.50000E+00 -6.15986E-01 -7.27129E-01  9.52972E-01
 -5.00000E+00 -8.33773E-43  2.50000E+00 -6.48976E-01 -7.55709E-01  9.96125E-01
 -5.00000E+00 -8.33773E-43  2.50000E+00 -6.81754E-01 -7.87329E-01  1.04148E+00
 -5.00000E+00 -8.33773E-43  2.50000E+00 -7.14691E-01 -8.22250E-01  1.08944E+00
 -5.00000E+00 -8.33773E-43  2.50000E+00 -7.31226E-01 -8.40578E-01  1.11412E+00
  5.00000E+00  8.33773E-43  2.50000E+00  3.55528E-01 -6.16591E-01  7.11748E-01
  5.00000E+00  8.33773E-43  2.50000E+00  4.11988E-01 -6.27541E-01  7.50694E-01
  5.00000E+00  8.33773E-43  2.50000E+00  4.45896E-01 -6.46454E-01  7.85319E-01
  5.00000E+00  8.33773E-43  2.50000E+00  4.74836E-01 -6.68617E-01  8.20072E-01
  5.00000E+00  8.33773E-43  2.50000E+00  5.02208E-01 -6.93954E-01  8.56612E-01
  5.00000E+00  8.33773E-43  2.50000E+00  5.28715E-01 -7.22399E-01  8.95210E-01
  5.00000E+00  8.33773E-43  2.50000E+00  5.54701E-01 -7.54176E-01  9.36203E-01
  5.00000E+00  8.33773E-43  2.50000E+00  5.67586E-01 -7.70936E-01  9.57338E-01
  4.50000E+00 -5.00000E-01  2.50000E+00  3.38884E-01 -6.21656E-01  7.08025E-01
  4.50000E+00 -5.00000E-01  2.50000E+00  3.97220E-01 -6.33596E-01  7.47815E-01
  4.50000E+00 -5.00000E-01  2.50000E+00  4.32318E-01 -6.52975E-01  7.83119E-01
  4.50000E+00 -5.00000E-01  2.50000E+00  4.61592E-01 -6.75492E-01  8.18143E-01
  4.50000E+00 -5.00000E-01  2.50000E+00  4.88901E-01 -7.01159E-01  8.54779E-01
  4.50000E+00 -5.00000E-01  2.50000E+00  5.15144E-01 -7.29926E-01  8.93401E-01
  4.50000E+00 -5.00000E-01  2.50000E+00  5.40719E-01 -7.62043E-01  9.34391E-01
  4.50000E+00 -5.00000E-01  2.50000E+00  5.53359E-01 -7.78982E-01  9.55520E-01
  4.00000E+00 -1.00000E+00  2.50000E+00  3.05262E-01 -6.32445E-01  7.02262E-01
  4.00000E+00 -1.00000E+00  2.50000E+00  3.65782E-01 -6.46471E-01  7.42779E-01
  4.00000E+00 -1.00000E+00  2.50000E+00  4.02485E-01 -6.66881E-01  7.78925E-01
  4.00000E+00 -1.00000E+00  2.50000E+00  4.32062E-01 -6.90182E-01  8.14266E-01
  4.00000E+00 -1.00000E+00  2.50000E+00  4.58999E-01 -7.16576E-01  8.50977E-01
  4.00000E+00 -1.00000E+00  2.50000E+00  4.84490E-01 -7.46054E-01  8.89566E-01
  4.00000E+00 -1.00000E+00  2.50000E+00  5.09006E-01 -7.78916E-01  9.30483E-01
  4.00000E+00 -1.00000E+00  2.50000E+00  5.21037E-01 -7.96242E-01  9.51568E-01
  3.50000E+00 -1.50000E+00  2.50000E+00  2.70579E-01 -6.44150E-01  6.98672E-01
  3.50000E+00 -1.50000E+00  2.50000E+00  3.30837E-01 -6.60373E-01  7.38611E-01
  3.50000E+00 -1.50000E+00  2.50000E+00  3.67862E-01 -6.81977E-01  7.74864E-01
  3.50000E+00 -1.50000E+00  2.50000E+00  3.97020E-01 -7.06192E-01  8.10143E-01
  3.50000E+00 -1.50000E+00  2.50000E+00  4.23047E-01 -7.33421E-01  8.46685E-01
  3.50000E+00 -1.50000E+00  2.50000E+00  4.47271E-01 -7.63715E-01  8.85049E-01
  3.50000E+00 -1.50000E+00  2.50000E+00  4.70182E-01 -7.97420E-01  9.25716E-01
  3.50000E+00 -1.50000E+00  2.50000E+00  4.81317E-01 -8.15180E-01  9.46670E-01
  3.00000E+00 -2.00000E+00  2.50000E+00  2.34244E-01 -6.56200E-01  6.96756E-01
  3.00000E+00 -2.00000E+00  2.50000E+00  2.92713E-01 -6.74568E-01  7.35339E-01
  3.00000E+00 -2.00000E+00  2.50000E+00  3.29105E-01 -6.97453E-01  7.71201E-01
  3.00000E+00 -2.00000E+00  2.50000E+00  3.57148E-01 -7.22650E-01  8.06088E-01
  3.00000E+00 -2.00000E+00  2.50000E+00  3.81701E-01 -7.50772E-01  8.42231E-01
  3.00000E+00 -2.00000E+00  2.50000E+00  4.04188E-01 -7.81930E-01  8.80218E-01
  3.00000E+00 -2.00000E+00  2.50000E+00  4.25117E-01 -8.16513E-01  9.20553E-01
  3.00000E+00 -2.00000E+00  2.50000E+00  4.35196E-01 -8.34716E-01  9.41354E-01
  2.50000E+00 -2.50000E+00  2.50000E+00  1.95970E-01 -6.68318E-01  6.96458E-01
  2.50000E+00 -2.50000E+00  2.50000E+00  2.51417E-01 -6.88669E-01  7.33127E-01
  2.50000E+00 -2.50000E+00  2.50000E+00  2.86299E-01 -7.12844E-01  7.68188E-01
  2.50000E+00 -2.50000E+00  2.50000E+00  3.12536E-01 -7.39034E-01  8.02403E-01
  2.50000E+00 -2.50000E+00  2.50000E+00  3.35068E-01 -7.68054E-01  8.37961E-01
  2.50000E+00 -2.50000E+00  2.50000E+00  3.55429E-01 -8.00084E-01  8.75479E-01
  2.50000E+00 -2.50000E+00  2.50000E+00  3.74153E-01 -8.35533E-01  9.15481E-01
  2.50000E+00 -2.50000E+00  2.50000E+00  3.83106E-01 -8.54170E-01  9.36149E-01
  2.00000E+00 -3.00000E+00  2.50000E+00  1.55514E-01 -6.80344E-01  6.97891E-01
  2.00000E+00 -3.00000E+00  2.50000E+00  2.06744E-01 -7.02420E-01  7.32213E-01
  2.00000E+00 -3.00000E+00  2.50000E+00  2.39188E-01 -7.27819E-01  7.66115E-01
  2.00000E+00 -3.00000E+00  2.50000E+00  2.62875E-01 -7.54960E-01  7.99417E-01
  2.00000E+00 -3.00000E+00  2.50000E+00  2.82769E-01 -7.84849E-01  8.34233E-01
  2.00000E+00 -3.00000E+00  2.50000E+00  3.00465E-01 -8.17726E-01  8.71180E-01
  2.00000E+00 -3.00000E+00  2.50000E+00  3.16464E-01 -8.54020E-01  9.10769E-01
  2.00000E+00 -3.00000E+00  2.50000E+00  3.24028E-01 -8.73077E-01  9.31267E-01
  1.50000E+00 -3.50000E+00  2.50000E+00  1.12431E-01 -6.92201E-01  7.01272E-01
  1.50000E+00 -3.50000E+00  2.50000E+00  1.58020E-01 -7.15643E-01  7.32881E-01
  1.50000E+00 -3.50000E+00  2.50000E+00  1.86848E-01 -7.42124E-01  7.65284E-01
  1.50000E+00 -3.50000E+00  2.50000E+00  2.07064E-01 -7.70117E-01  7.97468E-01
  1.50000E+00 -3.50000E+00  2.50000E+00  2.23576E-01 -8.00805E-01  8.31430E-01
  1.50000E+00 -3.50000E+00  2.50000E+00  2.37964E-01 -8.34485E-01  8.67751E-01
  1.50000E+00 -3.50000E+00  2.50000E+00  2.50626E-01 -8.71587E-01  9.06906E-01
  1.50000E+00 -3.50000E+00  2.50000E+00  2.56496E-01 -8.91050E-01  9.27232E-01
  1.00000E+00 -4.00000E+00  2.50000E+00  6.58990E-02 -7.03906E-01  7.06984E-01
  1.00000E+00 -4.00000E+00  2.50000E+00  1.03619E-01 -7.28226E-01  7.35561E-01
  1.00000E+00 -4.00000E+00  2.50000E+00  1.27041E-01 -7.55543E-01  7.66149E-01
  1.00000E+00 -4.00000E+00  2.50000E+00  1.42536E-01 -7.84238E-01  7.97086E-01
  1.00000E+00 -4.00000E+00  2.50000E+00  1.54755E-01 -8.15619E-01  8.30171E-01
  1.00000E+00 -4.00000E+00  2.50000E+00  1.65112E-01 -8.50021E-01  8.65908E-01
  1.00000E+00 -4.00000E+00  2.50000E+00  1.73808E-01 -8.87868E-01  9.04720E-01
  1.00000E+00 -4.00000E+00  2.50000E+00  1.77687E-01 -9.07706E-01  9.24934E-01
  5.00000E-01 -4.50000E+00  2.50000E+00  1.40905E-02 -7.15562E-01  7.15701E-01
  5.00000E-01 -4.50000E+00  2.50000E+00  3.77671E-02 -7.40288E-01  7.41251E-01
  5.00000E-01 -4.50000E+00  2.50000E+00  5.23045E-02 -7.68003E-01  7.69782E-01
  5.00000E-01 -4.50000E+00  2.50000E+00  6.10916E-02 -7.97201E-01  7.99539E-01
  5.00000E-01 -4.50000E+00  2.50000E+00  6.76069E-02 -8.29156E-01  8.31908E-01
  5.00000E-01 -4.50000E+00  2.50000E+00  7.28034E-02 -8.64184E-01  8.67245E-01
  5.00000E-01 -4.50000E+00  2.50000E+00  7.66014E-02 -9.02678E-01  9.05922E-01
  5.00000E-01 -4.50000E+00  2.50000E+00  7.80666E-02 -9.22842E-01  9.26138E-01
  4.28571E+00  7.14662E-43  2.50000E+00  2.86374E-01 -6.18320E-01  6.81418E-01
  3.85714E+00 -5.00000E-01  2.50000E+00  2.69851E-01 -6.22179E-01  6.78179E-01
  3.42857E+00 -1.00000E+00  2.50000E+00  2.37551E-01 -6.30480E-01  6.73747E-01
  3.00000E+00 -1.50000E+00  2.50000E+00  2.05973E-01 -6.39706E-01  6.72048E-01
  2.57143E+00 -2.00000E+00  2.50000E+00  1.73991E-01 -6.49504E-01  6.72405E-01
  2.14286E+00 -2.50000E+00  2.50000E+00  1.41094E-01 -6.59703E-01  6.74622E-01
  1.71429E+00 -3.00000E+00  2.50000E+00  1.06944E-01 -6.70227E-01  6.78706E-01
  1.28571E+00 -3.50000E+00  2.50000E+00  7.11622E-02 -6.81080E-01  6.84787E-01
  8.57143E-01 -4.00000E+00  2.50000E+00  3.33355E-02 -6.92364E-01  6.93166E-01
  4.28571E-01 -4.50000E+00  2.50000E+00 -5.79861E-03 -7.04026E-01  7.04050E-01
  3.57143E+00  5.95552E-43  2.50000E+00  2.25029E-01 -6.26185E-01  6.65392E-01
  3.21429E+00 -5.00000E-01  2.50000E+00  2.10974E-01 -6.29133E-01  6.63565E-01
  2.85714E+00 -1.00000E+00  2.50000E+00  1.83569E-01 -6.35582E-01  6.61561E-01
  2.50000E+00 -1.50000E+00  2.50000E+00  1.56987E-01 -6.43012E-01  6.61898E-01
  2.14286E+00 -2.00000E+00  2.50000E+00  1.30379E-01 -6.51225E-01  6.64148E-01
  1.78571E+00 -2.50000E+00  2.50000E+00  1.03302E-01 -6.60126E-01  6.68160E-01
  1.42857E+00 -3.00000E+00  2.50000E+00  7.53799E-02 -6.69698E-01  6.73927E-01
  1.07143E+00 -3.50000E+00  2.50000E+00  4.62415E-02 -6.79989E-01  6.81560E-01
  7.14286E-01 -4.00000E+00  2.50000E+00  1.54858E-02 -6.91150E-01  6.91323E-01
  3.57143E-01 -4.50000E+00  2.50000E+00 -1.64056E-02 -7.03137E-01  7.03329E-01
  2.85714E+00  4.76441E-43  2.50000E+00  1.66344E-01 -6.33467E-01  6.54944E-01
  2.57143E+00 -5.00000E-01  2.50000E+00  1.55051E-01 -6.35664E-01  6.54301E-01
  2.28571E+00 -1.00000E+00  2.50000E+00  1.32965E-01 -6.40606E-01  6.54260E-01
  2.00000E+00 -1.50000E+00  2.50000E+00  1.11518E-01 -6.46579E-01  6.56125E-01
  1.71429E+00 -2.00000E+00  2.50000E+00  9.01859E-02 -6.53477E-01  6.59671E-01
  1.42857E+00 -2.50000E+00  2.50000E+00  6.86155E-02 -6.61271E-01  6.64822E-01
  1.14286E+00 -3.00000E+00  2.50000E+00  4.64646E-02 -6.69984E-01  6.71593E-01
  8.57143E-01 -3.50000E+00  2.50000E+00  2.34117E-02 -6.79704E-01  6.80108E-01
  5.71428E-01 -4.00000E+00  2.50000E+00 -8.93597E-04 -6.90614E-01  6.90614E-01
  2.85714E-01 -4.50000E+00  2.50000E+00 -2.61407E-02 -7.02682E-01  7.03168E-01
  2.14286E+00  3.57331E-43  2.50000E+00  1.08825E-01 -6.39869E-01  6.49057E-01
  1.92857E+00 -5.00000E-01  2.50000E+00  1.00331E-01 -6.41460E-01  6.49259E-01
  1.71429E+00 -1.00000E+00  2.50000E+00  8.36648E-02 -6.45193E-01  6.50595E-01
  1.50000E+00 -1.50000E+00  2.50000E+00  6.74707E-02 -6.49993E-01  6.53486E-01
  1.28571E+00 -2.00000E+00  2.50000E+00  5.14323E-02 -6.55824E-01  6.57838E-01
  1.07143E+00 -2.50000E+00  2.50000E+00  3.52676E-02 -6.62697E-01  6.63634E-01
  8.57143E-01 -3.00000E+00  2.50000E+00  1.87157E-02 -6.70668E-01  6.70929E-01
  6.42857E-01 -3.50000E+00  2.50000E+00  1.51003E-03 -6.79861E-01  6.79862E-01
  4.28571E-01 -4.00000E+00  2.50000E+00 -1.66238E-02 -6.90476E-01  6.90676E-01
  2.14286E-01 -4.50000E+00  2.50000E+00 -3.54931E-02 -7.02495E-01  7.03391E-01
  1.42857E+00  2.38221E-43  2.50000E+00  5.19430E-02 -6.45311E-01  6.47398E-01
  1.28571E+00 -5.00000E-01  2.50000E+00  4.62484E-02 -6.46434E-01  6.48086E-01
  1.14286E+00 -1.00000E+00  2.50000E+00  3.50639E-02 -6.49231E-01  6.50177E-01
  1.00000E+00 -1.50000E+00  2.50000E+00  2.42000E-02 -6.53124E-01  6.53572E-01
  8.57143E-01 -2.00000E+00  2.50000E+00  1.34640E-02 -6.58119E-01  6.58256E-01
  7.14286E-01 -2.50000E+00  2.50000E+00  2.66221E-03 -6.64253E-01  6.64259E-01
  5.71429E-01 -3.00000E+00  2.50000E+00 -8.38586E-03 -6.71612E-01  6.71665E-01
  4.28571E-01 -3.50000E+00  2.50000E+00 -1.98738E-02 -6.80336E-01  6.80627E-01
  2.85714E-01 -4.00000E+00  2.50000E+00 -3.19929E-02 -6.90642E-01  6.91383E-01
  1.42857E-01 -4.50000E+00  2.50000E+00 -4.46352E-02 -7.02519E-01  7.03935E-01
  7.14286E-01  1.19110E-43  2.50000E+00 -4.66596E-03 -6.49783E-01  6.49800E-01
  6.42857E-01 -5.00000E-01  2.50000E+00 -7.53277E-03 -6.50565E-01  6.50609E-01
  5.71429E-01 -1.00000E+00  2.50000E+00 -1.31715E-02 -6.52684E-01  6.52817E-01
  5.00000E-01 -1.50000E+00  2.50000E+00 -1.86575E-02 -6.55921E-01  6.56186E-01
  4.28571E-01 -2.00000E+00  2.50000E+00 -2.40791E-02 -6.60299E-01  6.60738E-01
  3.57143E-01 -2.50000E+00  2.50000E+00 -2.95389E-02 -6.65878E-01  6.66533E-01
  2.85714E-01 -3.00000E+00  2.50000E+00 -3.51367E-02 -6.72756E-01  6.73673E-01
  2.14286E-01 -3.50000E+00  2.50000E+00 -4.09776E-02 -6.81078E-01  6.82310E-01
  1.42857E-01 -4.00000E+00  2.50000E+00 -4.71660E-02 -6.91071E-01  6.92679E-01
  7.14286E-02 -4.50000E+00  2.50000E+00 -5.36618E-02 -7.02729E-01  7.04775E-01
  0.00000E+00  0.00000E+00  2.50000E+00 -6.12205E-02 -6.53282E-01  6.56144E-01
  8.40779E-44 -5.00000E-01  2.50000E+00 -6.12334E-02 -6.53848E-01  6.56709E-01
  1.66755E-43 -1.00000E+00  2.50000E+00 -6.12735E-02 -6.55540E-01  6.58398E-01
  2.49431E-43 -1.50000E+00  2.50000E+00 -6.13428E-02 -6.58363E-01  6.61214E-01
  3.33509E-43 -2.00000E+00  2.50000E+00 -6.14428E-02 -6.62345E-01  6.65188E-01
  4.17587E-43 -2.50000E+00  2.50000E+00 -6.15766E-02 -6.67549E-01  6.70383E-01
  5.00264E-43 -3.00000E+00  2.50000E+00 -6.17495E-02 -6.74074E-01  6.76896E-01
  5.82940E-43 -3.50000E+00  2.50000E+00 -6.19716E-02 -6.82063E-01  6.84873E-01
  6.67018E-43 -4.00000E+00  2.50000E+00 -6.22610E-02 -6.91743E-01  6.94540E-01
  7.51096E-43 -4.50000E+00  2.50000E+00 -6.26411E-02 -7.03113E-01  7.05898E-01
 -7.14286E-01 -1.19110E-43  2.50000E+00 -1.17830E-01 -6.55805E-01  6.66306E-01
 -6.42857E-01 -5.00000E-01  2.50000E+00 -1.14986E-01 -6.56281E-01  6.66278E-01
 -5.71429E-01 -1.00000E+00  2.50000E+00 -1.09424E-01 -6.57799E-01  6.66838E-01
 -5.00000E-01 -1.50000E+00  2.50000E+00 -1.04075E-01 -6.60452E-01  6.68602E-01
 -4.28571E-01 -2.00000E+00  2.50000E+00 -9.88523E-02 -6.64260E-01  6.71575E-01
 -3.57143E-01 -2.50000E+00  2.50000E+00 -9.36580E-02 -6.69269E-01  6.75791E-01
 -2.85714E-01 -3.00000E+00  2.50000E+00 -8.84023E-02 -6.75567E-01  6.81326E-01
 -2.14286E-01 -3.50000E+00  2.50000E+00 -8.29997E-02 -6.83291E-01  6.88313E-01
 -1.42857E-01 -4.00000E+00  2.50000E+00 -7.73816E-02 -6.92658E-01  6.96967E-01
 -7.14286E-02 -4.50000E+00  2.50000E+00 -7.16356E-02 -7.03670E-01  7.07307E-01
 -1.42857E+00 -2.38221E-43  2.50000E+00 -1.74606E-01 -6.57367E-01  6.80160E-01
 -1.28571E+00 -5.00000E-01  2.50000E+00 -1.68926E-01 -6.57881E-01  6.79223E-01
 -1.14286E+00 -1.00000E+00  2.50000E+00 -1.57807E-01 -6.59482E-01  6.78100E-01
 -1.00000E+00 -1.50000E+00  2.50000E+00 -1.47076E-01 -6.62215E-01  6.78351E-01
 -8.57143E-01 -2.00000E+00  2.50000E+00 -1.36535E-01 -6.66067E-01  6.79917E-01
 -7.14286E-01 -2.50000E+00  2.50000E+00 -1.25993E-01 -6.71059E-01  6.82785E-01
 -5.71428E-01 -3.00000E+00  2.50000E+00 -1.15275E-01 -6.77255E-01  6.86996E-01
 -4.28571E-01 -3.50000E+00  2.50000E+00 -1.04208E-01 -6.84778E-01  6.92661E-01
 -2.85714E-01 -4.00000E+00  2.50000E+00 -9.26329E-02 -6.93826E-01  6.99983E-01
 -1.42857E-01 -4.50000E+00  2.50000E+00 -8.07084E-02 -7.04407E-01  7.09015E-01
 -2.14286E+00 -3.57331E-43  2.50000E+00 -2.31774E-01 -6.58004E-01  6.97631E-01
 -1.92857E+00 -5.00000E-01  2.50000E+00 -2.23282E-01 -6.58686E-01  6.95501E-01
 -1.71429E+00 -1.00000E+00  2.50000E+00 -2.06663E-01 -6.60634E-01  6.92204E-01
 -1.50000E+00 -1.50000E+00  2.50000E+00 -1.90595E-01 -6.63700E-01  6.90525E-01
 -1.28571E+00 -2.00000E+00  2.50000E+00 -1.74747E-01 -6.67817E-01  6.90302E-01
 -1.07143E+00 -2.50000E+00  2.50000E+00 -1.58830E-01 -6.72969E-01  6.91458E-01
 -8.57143E-01 -3.00000E+00  2.50000E+00 -1.42589E-01 -6.79186E-01  6.93993E-01
 -6.42857E-01 -3.50000E+00  2.50000E+00 -1.25771E-01 -6.86565E-01  6.97990E-01
 -4.28571E-01 -4.00000E+00  2.50000E+00 -1.08137E-01 -6.95281E-01  7.03640E-01
 -2.14286E-01 -4.50000E+00  2.50000E+00 -8.99300E-02 -7.05344E-01  7.11054E-01
 -2.85714E+00 -4.76441E-43  2.50000E+00 -2.89721E-01 -6.57777E-01  7.18755E-01
 -2.57143E+00 -5.00000E-01  2.50000E+00 -2.78410E-01 -6.58760E-01  7.15176E-01
 -2.28571E+00 -1.00000E+00  2.50000E+00 -2.56346E-01 -6.61331E-01  7.09275E-01
 -2.00000E+00 -1.50000E+00  2.50000E+00 -2.35017E-01 -6.65002E-01  7.05309E-01
 -1.71429E+00 -2.00000E+00  2.50000E+00 -2.13866E-01 -6.69613E-01  7.02937E-01
 -1.42857E+00 -2.50000E+00  2.50000E+00 -1.92526E-01 -6.75099E-01  7.02015E-01
 -1.14286E+00 -3.00000E+00  2.50000E+00 -1.70654E-01 -6.81452E-01  7.02496E-01
 -8.57143E-01 -3.50000E+00  2.50000E+00 -1.47939E-01 -6.88731E-01  7.04440E-01
 -5.71428E-01 -4.00000E+00  2.50000E+00 -1.24066E-01 -6.97082E-01  7.08037E-01
 -2.85714E-01 -4.50000E+00  2.50000E+00 -9.93995E-02 -7.06515E-01  7.13473E-01
 -3.57143E+00 -5.95552E-43  2.50000E+00 -3.49021E-01 -6.56826E-01  7.43798E-01
 -3.21428E+00 -5.00000E-01  2.50000E+00 -3.34922E-01 -6.58256E-01  7.38562E-01
 -2.85714E+00 -1.00000E+00  2.50000E+00 -3.07508E-01 -6.61750E-01  7.29708E-01
 -2.50000E+00 -1.50000E+00  2.50000E+00 -2.81034E-01 -6.66319E-01  7.23161E-01
 -2.14286E+00 -2.00000E+00  2.50000E+00 -2.54594E-01 -6.71669E-01  7.18302E-01
 -1.78571E+00 -2.50000E+00  2.50000E+00 -2.27717E-01 -6.77664E-01  7.14901E-01
 -1.42857E+00 -3.00000E+00  2.50000E+00 -2.00022E-01 -6.84249E-01  7.12885E-01
 -1.07143E+00 -3.50000E+00  2.50000E+00 -1.71149E-01 -6.91441E-01  7.12308E-01
 -7.14286E-01 -4.00000E+00  2.50000E+00 -1.40727E-01 -6.99352E-01  7.13371E-01
 -3.57143E-01 -4.50000E+00  2.50000E+00 -1.09299E-01 -7.07998E-01  7.16385E-01
 -4.28571E+00 -7.14662E-43  2.50000E+00 -4.11298E-01 -6.55618E-01  7.73952E-01
 -3.85714E+00 -5.00000E-01  2.50000E+00 -3.94706E-01 -6.57683E-01  7.67033E-01
 -3.42857E+00 -1.00000E+00  2.50000E+00 -3.62367E-01 -6.62483E-01  7.55111E-01
 -3.00000E+00 -1.50000E+00  2.50000E+00 -3.30884E-01 -6.68293E-01  7.45721E-01
 -2.57143E+00 -2.00000E+00  2.50000E+00 -2.99037E-01 -6.74638E-01  7.37943E-01
 -2.14286E+00 -2.50000E+00  2.50000E+00 -2.66282E-01 -6.81292E-01  7.31482E-01
 -1.71429E+00 -3.00000E+00  2.50000E+00 -2.32271E-01 -6.88152E-01  7.26294E-01
 -1.28571E+00 -3.50000E+00  2.50000E+00 -1.96634E-01 -6.95186E-01  7.22460E-01
 -8.57143E-01 -4.00000E+00  2.50000E+00 -1.58990E-01 -7.02461E-01  7.20228E-01
 -4.28571E-01 -4.50000E+00  2.50000E+00 -1.20143E-01 -7.10009E-01  7.20102E-01
  8.33773E-43  5.00000E+00  2.50000E+00 -6.30551E-02 -7.12007E-01  7.14794E-01
  8.33773E-43  5.00000E+00  2.50000E+00 -6.57004E-02 -7.49703E-01  7.52576E-01
  8.33773E-43  5.00000E+00  2.50000E+00 -6.79728E-02 -7.78062E-01  7.81025E-01
  8.33773E-43  5.00000E+00  2.50000E+00 -7.04795E-02 -8.07840E-01  8.10909E-01
  8.33773E-43  5.00000E+00  2.50000E+00 -7.32856E-02 -8.40369E-01  8.43558E-01
  8.33773E-43  5.00000E+00  2.50000E+00 -7.64170E-02 -8.75969E-01  8.79296E-01
  8.33773E-43  5.00000E+00  2.50000E+00 -7.98884E-02 -9.14997E-01  9.18478E-01
  8.33773E-43  5.00000E+00  2.50000E+00 -8.17115E-02 -9.35411E-01  9.38973E-01
 -5.00000E-01  4.50000E+00  2.50000E+00 -1.41782E-01 -7.23717E-01  7.37474E-01
 -5.00000E-01  4.50000E+00  2.50000E+00 -1.69296E-01 -7.51126E-01  7.69968E-01
 -5.00000E-01  4.50000E+00  2.50000E+00 -1.88453E-01 -7.80612E-01  8.03038E-01
 -5.00000E-01  4.50000E+00  2.50000E+00 -2.02291E-01 -8.11001E-01  8.35850E-01
 -5.00000E-01  4.50000E+00  2.50000E+00 -2.14442E-01 -8.43938E-01  8.70757E-01
 -5.00000E-01  4.50000E+00  2.50000E+00 -2.25919E-01 -8.79842E-01  9.08384E-01
 -5.00000E-01  4.50000E+00  2.50000E+00 -2.36677E-01 -9.19097E-01  9.49082E-01
 -5.00000E-01  4.50000E+00  2.50000E+00 -2.41797E-01 -9.39605E-01  9.70218E-01
 -1.00000E+00  4.00000E+00  2.50000E+00 -1.93593E-01 -7.17523E-01  7.43181E-01
 -1.00000E+00  4.00000E+00  2.50000E+00 -2.35412E-01 -7.46020E-01  7.82282E-01
 -1.00000E+00  4.00000E+00  2.50000E+00 -2.63570E-01 -7.76054E-01  8.19591E-01
 -1.00000E+00  4.00000E+00  2.50000E+00 -2.84180E-01 -8.06654E-01  8.55248E-01
 -1.00000E+00  4.00000E+00  2.50000E+00 -3.02079E-01 -8.39623E-01  8.92310E-01
 -1.00000E+00  4.00000E+00  2.50000E+00 -3.18748E-01 -8.75445E-01  9.31668E-01
 -1.00000E+00  4.00000E+00  2.50000E+00 -3.34435E-01 -9.14571E-01  9.73800E-01
 -1.00000E+00  4.00000E+00  2.50000E+00 -3.41985E-01 -9.35008E-01  9.95587E-01
 -1.50000E+00  3.50000E+00  2.50000E+00 -2.40181E-01 -7.10767E-01  7.50251E-01
 -1.50000E+00  3.50000E+00  2.50000E+00 -2.90056E-01 -7.39234E-01  7.94103E-01
 -1.50000E+00  3.50000E+00  2.50000E+00 -3.23686E-01 -7.69014E-01  8.34359E-01
 -1.50000E+00  3.50000E+00  2.50000E+00 -3.49060E-01 -7.99417E-01  8.72302E-01
 -1.50000E+00  3.50000E+00  2.50000E+00 -3.71284E-01 -8.32152E-01  9.11224E-01
 -1.50000E+00  3.50000E+00  2.50000E+00 -3.92009E-01 -8.67682E-01  9.52126E-01
 -1.50000E+00  3.50000E+00  2.50000E+00 -4.11684E-01 -9.06484E-01  9.95589E-01
 -1.50000E+00  3.50000E+00  2.50000E+00 -4.21238E-01 -9.26756E-01  1.01800E+00
 -2.00000E+00  3.00000E+00  2.50000E+00 -2.83304E-01 -7.03524E-01  7.58424E-01
 -2.00000E+00  3.00000E+00  2.50000E+00 -3.38948E-01 -7.31244E-01  8.05980E-01
 -2.00000E+00  3.00000E+00  2.50000E+00 -3.76230E-01 -7.60337E-01  8.48328E-01
 -2.00000E+00  3.00000E+00  2.50000E+00 -4.05101E-01 -7.90263E-01  8.88044E-01
 -2.00000E+00  3.00000E+00  2.50000E+00 -4.30726E-01 -8.22563E-01  9.28512E-01
 -2.00000E+00  3.00000E+00  2.50000E+00 -4.54773E-01 -8.57646E-01  9.70760E-01
 -2.00000E+00  3.00000E+00  2.50000E+00 -4.77801E-01 -8.95996E-01  1.01543E+00
 -2.00000E+00  3.00000E+00  2.50000E+00 -4.89057E-01 -9.16043E-01  1.03842E+00
 -2.50000E+00  2.50000E+00  2.50000E+00 -3.23754E-01 -6.95858E-01  7.67486E-01
 -2.50000E+00  2.50000E+00  2.50000E+00 -3.83697E-01 -7.22325E-01  8.17910E-01
 -2.50000E+00  2.50000E+00  2.50000E+00 -4.23427E-01 -7.50464E-01  8.61677E-01
 -2.50000E+00  2.50000E+00  2.50000E+00 -4.54856E-01 -7.79721E-01  9.02695E-01
 -2.50000E+00  2.50000E+00  2.50000E+00 -4.83126E-01 -8.11439E-01  9.44375E-01
 -2.50000E+00  2.50000E+00  2.50000E+00 -5.09845E-01 -8.45963E-01  9.87722E-01
 -2.50000E+00  2.50000E+00  2.50000E+00 -5.35603E-01 -8.83763E-01  1.03340E+00
 -2.50000E+00  2.50000E+00  2.50000E+00 -5.48250E-01 -9.03538E-01  1.05686E+00
 -3.00000E+00  2.00000E+00  2.50000E+00 -3.61968E-01 -6.87884E-01  7.77307E-01
 -3.00000E+00  2.00000E+00  2.50000E+00 -4.24969E-01 -7.12715E-01  8.29796E-01
 -3.00000E+00  2.00000E+00  2.50000E+00 -4.66195E-01 -7.39739E-01  8.74387E-01
 -3.00000E+00  2.00000E+00  2.50000E+00 -4.99423E-01 -7.68204E-01  9.16275E-01
 -3.00000E+00  2.00000E+00  2.50000E+00 -5.29708E-01 -7.99247E-01  9.58846E-01
 -3.00000E+00  2.00000E+00  2.50000E+00 -5.58548E-01 -8.33132E-01  1.00304E+00
 -3.00000E+00  2.00000E+00  2.50000E+00 -5.86508E-01 -8.70304E-01  1.04949E+00
 -3.00000E+00  2.00000E+00  2.50000E+00 -6.00279E-01 -8.89769E-01  1.07332E+00
 -3.50000E+00  1.50000E+00  2.50000E+00 -3.98198E-01 -6.79780E-01  7.87821E-01
 -3.50000E+00  1.50000E+00  2.50000E+00 -4.62972E-01 -7.02683E-01  8.41490E-01
 -3.50000E+00  1.50000E+00  2.50000E+00 -5.04793E-01 -7.28506E-01  8.86306E-01
 -3.50000E+00  1.50000E+00  2.50000E+00 -5.39111E-01 -7.56117E-01  9.28630E-01
 -3.50000E+00  1.50000E+00  2.50000E+00 -5.70853E-01 -7.86431E-01  9.71775E-01
 -3.50000E+00  1.50000E+00  2.50000E+00 -6.01416E-01 -8.19643E-01  1.01662E+00
 -3.50000E+00  1.50000E+00  2.50000E+00 -6.31344E-01 -8.56154E-01  1.06376E+00
 -3.50000E+00  1.50000E+00  2.50000E+00 -6.46164E-01 -8.75290E-01  1.08796E+00
 -4.00000E+00  1.00000E+00  2.50000E+00 -4.32759E-01 -6.71852E-01  7.99166E-01
 -4.00000E+00  1.00000E+00  2.50000E+00 -4.97716E-01 -6.92610E-01  8.52895E-01
 -4.00000E+00  1.00000E+00  2.50000E+00 -5.39150E-01 -7.17218E-01  8.97264E-01
 -4.00000E+00  1.00000E+00  2.50000E+00 -5.73843E-01 -7.43968E-01  9.39566E-01
 -4.00000E+00  1.00000E+00  2.50000E+00 -6.06465E-01 -7.73550E-01  9.82944E-01
 -4.00000E+00  1.00000E+00  2.50000E+00 -6.38272E-01 -8.06087E-01  1.02819E+00
 -4.00000E+00  1.00000E+00  2.50000E+00 -6.69784E-01 -8.41931E-01  1.07585E+00
 -4.00000E+00  1.00000E+00  2.50000E+00 -6.85488E-01 -8.60731E-01  1.10034E+00
 -4.50000E+00  5.00000E-01  2.50000E+00 -4.66328E-01 -6.64734E-01  8.11994E-01
 -4.50000E+00  5.00000E-01  2.50000E+00 -5.28921E-01 -6.83190E-01  8.64006E-01
 -4.50000E+00  5.00000E-01  2.50000E+00 -5.68637E-01 -7.06602E-01  9.06992E-01
 -4.50000E+00  5.00000E-01  2.50000E+00 -6.02966E-01 -7.32540E-01  9.48780E-01
 -4.50000E+00  5.00000E-01  2.50000E+00 -6.35916E-01 -7.61441E-01  9.92059E-01
 -4.50000E+00  5.00000E-01  2.50000E+00 -6.68446E-01 -7.93353E-01  1.03741E+00
 -4.50000E+00  5.00000E-01  2.50000E+00 -7.00988E-01 -8.28569E-01  1.08532E+00
 -4.50000E+00  5.00000E-01  2.50000E+00 -7.17288E-01 -8.47048E-01  1.10995E+00