 VARIABLES="w" "CA" "CM" "CMinf"
Zone t="Force sur  1- Mvt de  1 11",I=  40,F=POINT
   0.2000000E+01   0.3968348E+06   0.6792221E+05   0.0000000E+00
   0.1950000E+01   0.4140468E+06   0.7599862E+05   0.0000000E+00
   0.1900000E+01   0.4298013E+06   0.8566417E+05   0.0000000E+00
   0.1850000E+01   0.4428272E+06   0.9661207E+05   0.0000000E+00
   0.1800000E+01   0.4543062E+06   0.1090178E+06   0.0000000E+00
   0.1750000E+01   0.4644708E+06   0.1232732E+06   0.0000000E+00
   0.1700000E+01   0.4723374E+06   0.1392493E+06   0.0000000E+00
   0.1650000E+01   0.4785029E+06   0.1576774E+06   0.0000000E+00
   0.1600000E+01   0.4812002E+06   0.1784648E+06   0.0000000E+00
   0.1550000E+01   0.4805047E+06   0.2023608E+06   0.0000000E+00
   0.1500000E+01   0.4751715E+06   0.2295384E+06   0.0000000E+00
   0.1450000E+01   0.4638601E+06   0.2594266E+06   0.0000000E+00
   0.1400000E+01   0.4455800E+06   0.2911575E+06   0.0000000E+00
   0.1350000E+01   0.4193259E+06   0.3241825E+06   0.0000000E+00
   0.1300000E+01   0.3852444E+06   0.3572564E+06   0.0000000E+00
   0.1250000E+01   0.3446204E+06   0.3872678E+06   0.0000000E+00
   0.1200000E+01   0.2993172E+06   0.4124429E+06   0.0000000E+00
   0.1150000E+01   0.2511677E+06   0.4309545E+06   0.0000000E+00
   0.1100000E+01   0.2039841E+06   0.4428398E+06   0.0000000E+00
   0.1050000E+01   0.1614240E+06   0.4477414E+06   0.0000000E+00
   0.1000000E+01   0.1242321E+06   0.4455434E+06   0.0000000E+00
   0.9500000E+00   0.9313938E+05   0.4389924E+06   0.0000000E+00
   0.9000000E+00   0.6888983E+05   0.4307932E+06   0.0000000E+00
   0.8500000E+00   0.5032532E+05   0.4203224E+06   0.0000000E+00
   0.8000000E+00   0.3618914E+05   0.4087060E+06   0.0000000E+00
   0.7500001E+00   0.2588383E+05   0.3973120E+06   0.0000000E+00
   0.7000000E+00   0.1845789E+05   0.3867411E+06   0.0000000E+00
   0.6500000E+00   0.1300711E+05   0.3777660E+06   0.0000000E+00
   0.6000000E+00   0.9096619E+04   0.3698244E+06   0.0000000E+00
   0.5500000E+00   0.6304038E+04   0.3620454E+06   0.0000000E+00
   0.5000000E+00   0.4288186E+04   0.3547826E+06   0.0000000E+00
   0.4500000E+00   0.2870972E+04   0.3498070E+06   0.0000000E+00
   0.4000000E+00   0.1866669E+04   0.3450731E+06   0.0000000E+00
   0.3500000E+00   0.1168659E+04   0.3404494E+06   0.0000000E+00
   0.3000000E+00   0.6947899E+03   0.3369426E+06   0.0000000E+00
   0.2500000E+00   0.3833600E+03   0.3343571E+06   0.0000000E+00
   0.2000000E+00   0.1885811E+03   0.3315049E+06   0.0000000E+00
   0.1500000E+00   0.7718282E+02   0.3298104E+06   0.0000000E+00
   0.1000000E+00   0.2238560E+02   0.3287431E+06   0.0000000E+00
   0.5000000E-01   0.2757215E+01   0.3269348E+06   0.0000000E+00
Zone t="Force sur  1- Mvt de  1 13",I=  40,F=POINT
   0.2000000E+01  -0.1293945E+00  -0.2114563E+00   0.0000000E+00
   0.1950000E+01  -0.2558594E+00  -0.1419373E+00   0.0000000E+00
   0.1900000E+01  -0.3557129E+00  -0.9729004E-01   0.0000000E+00
   0.1850000E+01  -0.3476562E+00  -0.8477783E-01   0.0000000E+00
   0.1800000E+01  -0.4101562E+00  -0.8111572E-01   0.0000000E+00
   0.1750000E+01  -0.4378662E+00  -0.7708740E-01   0.0000000E+00
   0.1700000E+01  -0.5102539E+00  -0.7617188E-01   0.0000000E+00
   0.1650000E+01  -0.4975586E+00  -0.8349609E-01   0.0000000E+00
   0.1600000E+01  -0.5168457E+00  -0.9680176E-01   0.0000000E+00
   0.1550000E+01  -0.5549316E+00  -0.1170349E+00   0.0000000E+00
   0.1500000E+01  -0.5784912E+00  -0.1592712E+00   0.0000000E+00
   0.1450000E+01  -0.5725098E+00  -0.1851196E+00   0.0000000E+00
   0.1400000E+01  -0.5733643E+00  -0.2377930E+00   0.0000000E+00
   0.1350000E+01  -0.5798340E+00  -0.2781677E+00   0.0000000E+00
   0.1300000E+01  -0.5345459E+00  -0.3363800E+00   0.0000000E+00
   0.1250000E+01  -0.5095215E+00  -0.4169159E+00   0.0000000E+00
   0.1200000E+01  -0.4794922E+00  -0.4700890E+00   0.0000000E+00
   0.1150000E+01  -0.4147949E+00  -0.5049400E+00   0.0000000E+00
   0.1100000E+01  -0.3143311E+00  -0.5083923E+00   0.0000000E+00
   0.1050000E+01  -0.2760010E+00  -0.5256348E+00   0.0000000E+00
   0.1000000E+01  -0.1777344E+00  -0.5155334E+00   0.0000000E+00
   0.9500000E+00  -0.1467285E+00  -0.5046387E+00   0.0000000E+00
   0.9000000E+00  -0.1076660E+00  -0.5202637E+00   0.0000000E+00
   0.8500000E+00  -0.9155273E-01  -0.4906006E+00   0.0000000E+00
   0.8000000E+00  -0.5700684E-01  -0.4794312E+00   0.0000000E+00
   0.7500001E+00  -0.3588867E-01  -0.4382935E+00   0.0000000E+00
   0.7000000E+00  -0.2172852E-01  -0.4820557E+00   0.0000000E+00
   0.6500000E+00  -0.3277588E-01  -0.4378662E+00   0.0000000E+00
   0.6000000E+00  -0.2056885E-01  -0.3836670E+00   0.0000000E+00
   0.5500000E+00  -0.8117676E-02  -0.4022217E+00   0.0000000E+00
   0.5000000E+00  -0.2319336E-02  -0.4250488E+00   0.0000000E+00
   0.4500000E+00   0.3051758E-02  -0.4046631E+00   0.0000000E+00
   0.4000000E+00  -0.3112793E-02  -0.3854980E+00   0.0000000E+00
   0.3500000E+00   0.6469727E-02  -0.4250488E+00   0.0000000E+00
   0.3000000E+00  -0.1861572E-02  -0.3542480E+00   0.0000000E+00
   0.2500000E+00   0.7141113E-02  -0.3699951E+00   0.0000000E+00
   0.2000000E+00  -0.9155273E-03  -0.3696289E+00   0.0000000E+00
   0.1500000E+00  -0.2441406E-02  -0.4221191E+00   0.0000000E+00
   0.1000000E+00   0.0000000E+00  -0.3493652E+00   0.0000000E+00
   0.5000000E-01   0.9918213E-04  -0.3522949E+00   0.0000000E+00
Zone t="Force sur  1- Mvt de  1 15",I=  40,F=POINT
   0.2000000E+01   0.4098325E+06  -0.1434450E+05   0.0000000E+00
   0.1950000E+01   0.4249055E+06  -0.7080331E+04   0.0000000E+00
   0.1900000E+01   0.4367322E+06   0.9802544E+03   0.0000000E+00
   0.1850000E+01   0.4489207E+06   0.1142721E+05   0.0000000E+00
   0.1800000E+01   0.4580508E+06   0.2260235E+05   0.0000000E+00
   0.1750000E+01   0.4661936E+06   0.3461401E+05   0.0000000E+00
   0.1700000E+01   0.4744353E+06   0.4909868E+05   0.0000000E+00
   0.1650000E+01   0.4805620E+06   0.6537504E+05   0.0000000E+00
   0.1600000E+01   0.4845604E+06   0.8584057E+05   0.0000000E+00
   0.1550000E+01   0.4845209E+06   0.1081771E+06   0.0000000E+00
   0.1500000E+01   0.4805912E+06   0.1330274E+06   0.0000000E+00
   0.1450000E+01   0.4721912E+06   0.1622197E+06   0.0000000E+00
   0.1400000E+01   0.4560022E+06   0.1941991E+06   0.0000000E+00
   0.1350000E+01   0.4316216E+06   0.2272701E+06   0.0000000E+00
   0.1300000E+01   0.4002483E+06   0.2599939E+06   0.0000000E+00
   0.1250000E+01   0.3616802E+06   0.2917415E+06   0.0000000E+00
   0.1200000E+01   0.3167055E+06   0.3192720E+06   0.0000000E+00
   0.1150000E+01   0.2687558E+06   0.3396585E+06   0.0000000E+00
   0.1100000E+01   0.2213973E+06   0.3538478E+06   0.0000000E+00
   0.1050000E+01   0.1772299E+06   0.3607403E+06   0.0000000E+00
   0.1000000E+01   0.1379639E+06   0.3603999E+06   0.0000000E+00
   0.9500000E+00   0.1050873E+06   0.3552012E+06   0.0000000E+00
   0.9000000E+00   0.7874791E+05   0.3479457E+06   0.0000000E+00
   0.8500000E+00   0.5820841E+05   0.3382403E+06   0.0000000E+00
   0.8000000E+00   0.4253089E+05   0.3267970E+06   0.0000000E+00
   0.7500001E+00   0.3081623E+05   0.3153667E+06   0.0000000E+00
   0.7000000E+00   0.2218278E+05   0.3049340E+06   0.0000000E+00
   0.6500000E+00   0.1582542E+05   0.2956460E+06   0.0000000E+00
   0.6000000E+00   0.1118747E+05   0.2872913E+06   0.0000000E+00
   0.5500000E+00   0.7822660E+04   0.2793336E+06   0.0000000E+00
   0.5000000E+00   0.5370986E+04   0.2717167E+06   0.0000000E+00
   0.4500000E+00   0.3621898E+04   0.2664369E+06   0.0000000E+00
   0.4000000E+00   0.2371995E+04   0.2611179E+06   0.0000000E+00
   0.3500000E+00   0.1494232E+04   0.2562149E+06   0.0000000E+00
   0.3000000E+00   0.8928920E+03   0.2525288E+06   0.0000000E+00
   0.2500000E+00   0.4947690E+03   0.2495321E+06   0.0000000E+00
   0.2000000E+00   0.2442766E+03   0.2464558E+06   0.0000000E+00
   0.1500000E+00   0.1002520E+03   0.2440839E+06   0.0000000E+00
   0.1000000E+00   0.2913357E+02   0.2423192E+06   0.0000000E+00
   0.5000000E-01   0.3591563E+01   0.2398201E+06   0.0000000E+00
Zone t="Force sur  1- Mvt de  1 22",I=  40,F=POINT
   0.2000000E+01   0.3968348E+06   0.6792220E+05   0.0000000E+00
   0.1950000E+01   0.4140471E+06   0.7599862E+05   0.0000000E+00
   0.1900000E+01   0.4298012E+06   0.8566412E+05   0.0000000E+00
   0.1850000E+01   0.4428271E+06   0.9661198E+05   0.0000000E+00
   0.1800000E+01   0.4543064E+06   0.1090177E+06   0.0000000E+00
   0.1750000E+01   0.4644708E+06   0.1232732E+06   0.0000000E+00
   0.1700000E+01   0.4723376E+06   0.1392492E+06   0.0000000E+00
   0.1650000E+01   0.4785028E+06   0.1576773E+06   0.0000000E+00
   0.1600000E+01   0.4811999E+06   0.1784647E+06   0.0000000E+00
   0.1550000E+01   0.4805051E+06   0.2023606E+06   0.0000000E+00
   0.1500000E+01   0.4751715E+06   0.2295384E+06   0.0000000E+00
   0.1450000E+01   0.4638603E+06   0.2594268E+06   0.0000000E+00
   0.1400000E+01   0.4455801E+06   0.2911576E+06   0.0000000E+00
   0.1350000E+01   0.4193261E+06   0.3241825E+06   0.0000000E+00
   0.1300000E+01   0.3852447E+06   0.3572562E+06   0.0000000E+00
   0.1250000E+01   0.3446201E+06   0.3872677E+06   0.0000000E+00
   0.1200000E+01   0.2993173E+06   0.4124434E+06   0.0000000E+00
   0.1150000E+01   0.2511677E+06   0.4309546E+06   0.0000000E+00
   0.1100000E+01   0.2039842E+06   0.4428401E+06   0.0000000E+00
   0.1050000E+01   0.1614241E+06   0.4477416E+06   0.0000000E+00
   0.1000000E+01   0.1242320E+06   0.4455436E+06   0.0000000E+00
   0.9500000E+00   0.9313945E+05   0.4389924E+06   0.0000000E+00
   0.9000000E+00   0.6888988E+05   0.4307932E+06   0.0000000E+00
   0.8500000E+00   0.5032537E+05   0.4203225E+06   0.0000000E+00
   0.8000000E+00   0.3618915E+05   0.4087062E+06   0.0000000E+00
   0.7500001E+00   0.2588385E+05   0.3973123E+06   0.0000000E+00
   0.7000000E+00   0.1845789E+05   0.3867412E+06   0.0000000E+00
   0.6500000E+00   0.1300712E+05   0.3777662E+06   0.0000000E+00
   0.6000000E+00   0.9096627E+04   0.3698245E+06   0.0000000E+00
   0.5500000E+00   0.6304035E+04   0.3620453E+06   0.0000000E+00
   0.5000000E+00   0.4288188E+04   0.3547827E+06   0.0000000E+00
   0.4500000E+00   0.2870976E+04   0.3498071E+06   0.0000000E+00
   0.4000000E+00   0.1866668E+04   0.3450731E+06   0.0000000E+00
   0.3500000E+00   0.1168658E+04   0.3404496E+06   0.0000000E+00
   0.3000000E+00   0.6947895E+03   0.3369424E+06   0.0000000E+00
   0.2500000E+00   0.3833595E+03   0.3343572E+06   0.0000000E+00
   0.2000000E+00   0.1885808E+03   0.3315050E+06   0.0000000E+00
   0.1500000E+00   0.7718261E+02   0.3298106E+06   0.0000000E+00
   0.1000000E+00   0.2238549E+02   0.3287434E+06   0.0000000E+00
   0.5000000E-01   0.2757160E+01   0.3269349E+06   0.0000000E+00
Zone t="Force sur  1- Mvt de  1 24",I=  40,F=POINT
   0.2000000E+01  -0.4098316E+06   0.1434433E+05   0.0000000E+00
   0.1950000E+01  -0.4249048E+06   0.7080161E+04   0.0000000E+00
   0.1900000E+01  -0.4367315E+06  -0.9803616E+03   0.0000000E+00
   0.1850000E+01  -0.4489197E+06  -0.1142729E+05   0.0000000E+00
   0.1800000E+01  -0.4580498E+06  -0.2260239E+05   0.0000000E+00
   0.1750000E+01  -0.4661924E+06  -0.3461399E+05   0.0000000E+00
   0.1700000E+01  -0.4744341E+06  -0.4909862E+05   0.0000000E+00
   0.1650000E+01  -0.4805613E+06  -0.6537495E+05   0.0000000E+00
   0.1600000E+01  -0.4845594E+06  -0.8584045E+05   0.0000000E+00
   0.1550000E+01  -0.4845199E+06  -0.1081770E+06   0.0000000E+00
   0.1500000E+01  -0.4805900E+06  -0.1330271E+06   0.0000000E+00
   0.1450000E+01  -0.4721902E+06  -0.1622193E+06   0.0000000E+00
   0.1400000E+01  -0.4560014E+06  -0.1941989E+06   0.0000000E+00
   0.1350000E+01  -0.4316207E+06  -0.2272698E+06   0.0000000E+00
   0.1300000E+01  -0.4002477E+06  -0.2599936E+06   0.0000000E+00
   0.1250000E+01  -0.3616796E+06  -0.2917408E+06   0.0000000E+00
   0.1200000E+01  -0.3167048E+06  -0.3192714E+06   0.0000000E+00
   0.1150000E+01  -0.2687552E+06  -0.3396581E+06   0.0000000E+00
   0.1100000E+01  -0.2213969E+06  -0.3538473E+06   0.0000000E+00
   0.1050000E+01  -0.1772295E+06  -0.3607396E+06   0.0000000E+00
   0.1000000E+01  -0.1379636E+06  -0.3603992E+06   0.0000000E+00
   0.9500000E+00  -0.1050870E+06  -0.3552006E+06   0.0000000E+00
   0.9000000E+00  -0.7874774E+05  -0.3479450E+06   0.0000000E+00
   0.8500000E+00  -0.5820826E+05  -0.3382396E+06   0.0000000E+00
   0.8000000E+00  -0.4253080E+05  -0.3267966E+06   0.0000000E+00
   0.7500001E+00  -0.3081614E+05  -0.3153662E+06   0.0000000E+00
   0.7000000E+00  -0.2218273E+05  -0.3049331E+06   0.0000000E+00
   0.6500000E+00  -0.1582538E+05  -0.2956454E+06   0.0000000E+00
   0.6000000E+00  -0.1118745E+05  -0.2872908E+06   0.0000000E+00
   0.5500000E+00  -0.7822646E+04  -0.2793330E+06   0.0000000E+00
   0.5000000E+00  -0.5370979E+04  -0.2717163E+06   0.0000000E+00
   0.4500000E+00  -0.3621891E+04  -0.2664367E+06   0.0000000E+00
   0.4000000E+00  -0.2371992E+04  -0.2611172E+06   0.0000000E+00
   0.3500000E+00  -0.1494229E+04  -0.2562144E+06   0.0000000E+00
   0.3000000E+00  -0.8928906E+03  -0.2525285E+06   0.0000000E+00
   0.2500000E+00  -0.4947664E+03  -0.2495315E+06   0.0000000E+00
   0.2000000E+00  -0.2442738E+03  -0.2464553E+06   0.0000000E+00
   0.1500000E+00  -0.1002532E+03  -0.2440833E+06   0.0000000E+00
   0.1000000E+00  -0.2913375E+02  -0.2423188E+06   0.0000000E+00
   0.5000000E-01  -0.3592065E+01  -0.2398197E+06   0.0000000E+00
Zone t="Force sur  1- Mvt de  1 33",I=  40,F=POINT
   0.2000000E+01   0.6352190E+04   0.3085467E+06   0.0000000E+00
   0.1950000E+01   0.8208425E+04   0.3059884E+06   0.0000000E+00
   0.1900000E+01   0.9219366E+04   0.3045774E+06   0.0000000E+00
   0.1850000E+01   0.1048345E+05   0.3026071E+06   0.0000000E+00
   0.1800000E+01   0.1193258E+05   0.3007093E+06   0.0000000E+00
   0.1750000E+01   0.1434735E+05   0.2995831E+06   0.0000000E+00
   0.1700000E+01   0.1704365E+05   0.2979070E+06   0.0000000E+00
   0.1650000E+01   0.1995069E+05   0.2957187E+06   0.0000000E+00
   0.1600000E+01   0.2354063E+05   0.2931316E+06   0.0000000E+00
   0.1550000E+01   0.2796196E+05   0.2909229E+06   0.0000000E+00
   0.1500000E+01   0.3148753E+05   0.2902757E+06   0.0000000E+00
   0.1450000E+01   0.3570945E+05   0.2879380E+06   0.0000000E+00
   0.1400000E+01   0.4151426E+05   0.2858011E+06   0.0000000E+00
   0.1350000E+01   0.4839304E+05   0.2845789E+06   0.0000000E+00
   0.1300000E+01   0.5152606E+05   0.2855121E+06   0.0000000E+00
   0.1250000E+01   0.5666780E+05   0.2846176E+06   0.0000000E+00
   0.1200000E+01   0.6384935E+05   0.2851501E+06   0.0000000E+00
   0.1150000E+01   0.6840045E+05   0.2878571E+06   0.0000000E+00
   0.1100000E+01   0.7096995E+05   0.2899288E+06   0.0000000E+00
   0.1050000E+01   0.7589612E+05   0.2931184E+06   0.0000000E+00
   0.1000000E+01   0.8070441E+05   0.2987689E+06   0.0000000E+00
   0.9500000E+00   0.7948609E+05   0.3030077E+06   0.0000000E+00
   0.9000000E+00   0.8096647E+05   0.3086318E+06   0.0000000E+00
   0.8500000E+00   0.8232451E+05   0.3169549E+06   0.0000000E+00
   0.8000000E+00   0.7919642E+05   0.3227698E+06   0.0000000E+00
   0.7500001E+00   0.7753188E+05   0.3300995E+06   0.0000000E+00
   0.7000000E+00   0.7557602E+05   0.3398654E+06   0.0000000E+00
   0.6500000E+00   0.7115271E+05   0.3465317E+06   0.0000000E+00
   0.6000000E+00   0.6748655E+05   0.3558124E+06   0.0000000E+00
   0.5500000E+00   0.6318721E+05   0.3657826E+06   0.0000000E+00
   0.5000000E+00   0.5822066E+05   0.3741405E+06   0.0000000E+00
   0.4500000E+00   0.5337536E+05   0.3859415E+06   0.0000000E+00
   0.4000000E+00   0.4789444E+05   0.3959884E+06   0.0000000E+00
   0.3500000E+00   0.4245946E+05   0.4089835E+06   0.0000000E+00
   0.3000000E+00   0.3669827E+05   0.4219080E+06   0.0000000E+00
   0.2500000E+00   0.3085279E+05   0.4387906E+06   0.0000000E+00
   0.2000000E+00   0.2487121E+05   0.4580782E+06   0.0000000E+00
   0.1500000E+00   0.1876710E+05   0.4821777E+06   0.0000000E+00
   0.1000000E+00   0.1257195E+05   0.5140511E+06   0.0000000E+00
   0.5000000E-01   0.6307992E+04   0.5648312E+06   0.0000000E+00
Zone t="Force sur  1- Mvt de  1 44",I=  40,F=POINT
   0.2000000E+01   0.4310812E+06   0.1266132E+07   0.0000000E+00
   0.1950000E+01   0.4327152E+06   0.1271642E+07   0.0000000E+00
   0.1900000E+01   0.4386779E+06   0.1278228E+07   0.0000000E+00
   0.1850000E+01   0.4470726E+06   0.1287653E+07   0.0000000E+00
   0.1800000E+01   0.4602863E+06   0.1299017E+07   0.0000000E+00
   0.1750000E+01   0.4728918E+06   0.1311838E+07   0.0000000E+00
   0.1700000E+01   0.4730264E+06   0.1320065E+07   0.0000000E+00
   0.1650000E+01   0.4756988E+06   0.1332483E+07   0.0000000E+00
   0.1600000E+01   0.4799615E+06   0.1351391E+07   0.0000000E+00
   0.1550000E+01   0.4843665E+06   0.1375498E+07   0.0000000E+00
   0.1500000E+01   0.4829330E+06   0.1399590E+07   0.0000000E+00
   0.1450000E+01   0.4741379E+06   0.1421604E+07   0.0000000E+00
   0.1400000E+01   0.4593328E+06   0.1451300E+07   0.0000000E+00
   0.1350000E+01   0.4403670E+06   0.1488863E+07   0.0000000E+00
   0.1300000E+01   0.4111460E+06   0.1522930E+07   0.0000000E+00
   0.1250000E+01   0.3747783E+06   0.1550384E+07   0.0000000E+00
   0.1200000E+01   0.3312379E+06   0.1579444E+07   0.0000000E+00
   0.1150000E+01   0.2844503E+06   0.1606904E+07   0.0000000E+00
   0.1100000E+01   0.2374126E+06   0.1620420E+07   0.0000000E+00
   0.1050000E+01   0.1922839E+06   0.1627138E+07   0.0000000E+00
   0.1000000E+01   0.1520861E+06   0.1632787E+07   0.0000000E+00
   0.9500000E+00   0.1171419E+06   0.1629285E+07   0.0000000E+00
   0.9000000E+00   0.8906853E+05   0.1620710E+07   0.0000000E+00
   0.8500000E+00   0.6685737E+05   0.1614378E+07   0.0000000E+00
   0.8000000E+00   0.4940459E+05   0.1603879E+07   0.0000000E+00
   0.7500001E+00   0.3627454E+05   0.1589790E+07   0.0000000E+00
   0.7000000E+00   0.2645212E+05   0.1581973E+07   0.0000000E+00
   0.6500000E+00   0.1906666E+05   0.1572899E+07   0.0000000E+00
   0.6000000E+00   0.1363016E+05   0.1561901E+07   0.0000000E+00
   0.5500000E+00   0.9623576E+04   0.1555742E+07   0.0000000E+00
   0.5000000E+00   0.6666195E+04   0.1546616E+07   0.0000000E+00
   0.4500000E+00   0.4532294E+04   0.1541375E+07   0.0000000E+00
   0.4000000E+00   0.2987832E+04   0.1536307E+07   0.0000000E+00
   0.3500000E+00   0.1894321E+04   0.1529782E+07   0.0000000E+00
   0.3000000E+00   0.1138021E+04   0.1526401E+07   0.0000000E+00
   0.2500000E+00   0.6332323E+03   0.1524554E+07   0.0000000E+00
   0.2000000E+00   0.3138402E+03   0.1519822E+07   0.0000000E+00
   0.1500000E+00   0.1291313E+03   0.1516513E+07   0.0000000E+00
   0.1000000E+00   0.3758228E+02   0.1514679E+07   0.0000000E+00
   0.5000000E-01   0.4642477E+01   0.1506106E+07   0.0000000E+00
Zone t="Force sur  1- Mvt de  1 35",I=  40,F=POINT
   0.2000000E+01  -0.2172852E-01  -0.2004395E+00   0.0000000E+00
   0.1950000E+01  -0.8850098E-03  -0.2614746E+00   0.0000000E+00
   0.1900000E+01  -0.4394531E-01  -0.3923340E+00   0.0000000E+00
   0.1850000E+01  -0.9051514E-01  -0.2426758E+00   0.0000000E+00
   0.1800000E+01  -0.6945801E-01  -0.2075195E+00   0.0000000E+00
   0.1750000E+01  -0.1240845E+00  -0.1784668E+00   0.0000000E+00
   0.1700000E+01  -0.1699219E+00  -0.2749023E+00   0.0000000E+00
   0.1650000E+01  -0.2052002E+00  -0.1940918E+00   0.0000000E+00
   0.1600000E+01  -0.2535400E+00  -0.2468262E+00   0.0000000E+00
   0.1550000E+01  -0.2760010E+00  -0.1091309E+00   0.0000000E+00
   0.1500000E+01  -0.3380127E+00  -0.1862793E+00   0.0000000E+00
   0.1450000E+01  -0.3652344E+00  -0.1447754E+00   0.0000000E+00
   0.1400000E+01  -0.4775391E+00  -0.1181641E+00   0.0000000E+00
   0.1350000E+01  -0.5502930E+00  -0.7617188E-01   0.0000000E+00
   0.1300000E+01  -0.6042480E+00  -0.2250977E+00   0.0000000E+00
   0.1250000E+01  -0.7349854E+00  -0.2128906E+00   0.0000000E+00
   0.1200000E+01  -0.7720947E+00  -0.2270508E+00   0.0000000E+00
   0.1150000E+01  -0.8149414E+00  -0.1938477E+00   0.0000000E+00
   0.1100000E+01  -0.8305664E+00  -0.1782227E+00   0.0000000E+00
   0.1050000E+01  -0.8421021E+00  -0.2084961E+00   0.0000000E+00
   0.1000000E+01  -0.8843384E+00  -0.1430664E+00   0.0000000E+00
   0.9500000E+00  -0.8537598E+00  -0.2109375E+00   0.0000000E+00
   0.9000000E+00  -0.8588562E+00  -0.4721680E+00   0.0000000E+00
   0.8500000E+00  -0.8500977E+00  -0.5263672E+00   0.0000000E+00
   0.8000000E+00  -0.8612061E+00  -0.4594727E+00   0.0000000E+00
   0.7500001E+00  -0.8335114E+00  -0.7333984E+00   0.0000000E+00
   0.7000000E+00  -0.7616272E+00  -0.7705078E+00   0.0000000E+00
   0.6500000E+00  -0.7460938E+00  -0.1031738E+01   0.0000000E+00
   0.6000000E+00  -0.6729813E+00  -0.8759766E+00   0.0000000E+00
   0.5500000E+00  -0.6119766E+00  -0.1014160E+01   0.0000000E+00
   0.5000000E+00  -0.5957603E+00  -0.1104980E+01   0.0000000E+00
   0.4500000E+00  -0.5202351E+00  -0.1233398E+01   0.0000000E+00
   0.4000000E+00  -0.4664092E+00  -0.1197266E+01   0.0000000E+00
   0.3500000E+00  -0.4225740E+00  -0.1394043E+01   0.0000000E+00
   0.3000000E+00  -0.3504643E+00  -0.1482910E+01   0.0000000E+00
   0.2500000E+00  -0.2990448E+00  -0.1634766E+01   0.0000000E+00
   0.2000000E+00  -0.2476287E+00  -0.1928223E+01   0.0000000E+00
   0.1500000E+00  -0.1857426E+00  -0.2232422E+01   0.0000000E+00
   0.1000000E+00  -0.1254989E+00  -0.2435547E+01   0.0000000E+00
   0.5000000E-01  -0.5881904E-01  -0.2566406E+01   0.0000000E+00
Zone t="Force sur  1- Mvt de  1 51",I=  40,F=POINT
   0.2000000E+01   0.4074978E+06  -0.1255313E+05   0.0000000E+00
   0.1950000E+01   0.4216713E+06  -0.5401333E+04   0.0000000E+00
   0.1900000E+01   0.4335069E+06   0.2941959E+04   0.0000000E+00
   0.1850000E+01   0.4447021E+06   0.1277066E+05   0.0000000E+00
   0.1800000E+01   0.4534627E+06   0.2380101E+05   0.0000000E+00
   0.1750000E+01   0.4610511E+06   0.3614143E+05   0.0000000E+00
   0.1700000E+01   0.4695648E+06   0.5033700E+05   0.0000000E+00
   0.1650000E+01   0.4756937E+06   0.6663209E+05   0.0000000E+00
   0.1600000E+01   0.4792782E+06   0.8614970E+05   0.0000000E+00
   0.1550000E+01   0.4787783E+06   0.1081375E+06   0.0000000E+00
   0.1500000E+01   0.4746172E+06   0.1331538E+06   0.0000000E+00
   0.1450000E+01   0.4668801E+06   0.1620411E+06   0.0000000E+00
   0.1400000E+01   0.4511477E+06   0.1932624E+06   0.0000000E+00
   0.1350000E+01   0.4267178E+06   0.2257223E+06   0.0000000E+00
   0.1300000E+01   0.3952295E+06   0.2582919E+06   0.0000000E+00
   0.1250000E+01   0.3575724E+06   0.2899507E+06   0.0000000E+00
   0.1200000E+01   0.3136889E+06   0.3170627E+06   0.0000000E+00
   0.1150000E+01   0.2656318E+06   0.3365321E+06   0.0000000E+00
   0.1100000E+01   0.2187815E+06   0.3511146E+06   0.0000000E+00
   0.1050000E+01   0.1754799E+06   0.3584900E+06   0.0000000E+00
   0.1000000E+01   0.1365256E+06   0.3575124E+06   0.0000000E+00
   0.9500000E+00   0.1038149E+06   0.3521435E+06   0.0000000E+00
   0.9000000E+00   0.7793416E+05   0.3458393E+06   0.0000000E+00
   0.8500000E+00   0.5767067E+05   0.3361919E+06   0.0000000E+00
   0.8000000E+00   0.4208093E+05   0.3247600E+06   0.0000000E+00
   0.7500001E+00   0.3049918E+05   0.3136898E+06   0.0000000E+00
   0.7000000E+00   0.2197798E+05   0.3028987E+06   0.0000000E+00
   0.6500000E+00   0.1567404E+05   0.2938010E+06   0.0000000E+00
   0.6000000E+00   0.1108530E+05   0.2860095E+06   0.0000000E+00
   0.5500000E+00   0.7754832E+04   0.2777582E+06   0.0000000E+00
   0.5000000E+00   0.5322527E+04   0.2701262E+06   0.0000000E+00
   0.4500000E+00   0.3591333E+04   0.2650508E+06   0.0000000E+00
   0.4000000E+00   0.2351562E+04   0.2598320E+06   0.0000000E+00
   0.3500000E+00   0.1481631E+04   0.2549738E+06   0.0000000E+00
   0.3000000E+00   0.8855040E+03   0.2512515E+06   0.0000000E+00
   0.2500000E+00   0.4906568E+03   0.2482373E+06   0.0000000E+00
   0.2000000E+00   0.2422728E+03   0.2452419E+06   0.0000000E+00
   0.1500000E+00   0.9940162E+02   0.2430432E+06   0.0000000E+00
   0.1000000E+00   0.2887676E+02   0.2414487E+06   0.0000000E+00
   0.5000000E-01   0.3561185E+01   0.2394578E+06   0.0000000E+00
Zone t="Force sur  1- Mvt de  1 53",I=  40,F=POINT
   0.2000000E+01   0.2351685E+00  -0.9902344E+00   0.0000000E+00
   0.1950000E+01   0.6896973E-02  -0.9873047E+00   0.0000000E+00
   0.1900000E+01  -0.1443176E+00  -0.9643555E+00   0.0000000E+00
   0.1850000E+01  -0.1784058E+00  -0.1163086E+01   0.0000000E+00
   0.1800000E+01  -0.2315063E+00  -0.1060059E+01   0.0000000E+00
   0.1750000E+01  -0.2761230E+00  -0.1332520E+01   0.0000000E+00
   0.1700000E+01  -0.2933350E+00  -0.1190918E+01   0.0000000E+00
   0.1650000E+01  -0.3376465E+00  -0.1184570E+01   0.0000000E+00
   0.1600000E+01  -0.3457031E+00  -0.1222656E+01   0.0000000E+00
   0.1550000E+01  -0.4136963E+00  -0.1286133E+01   0.0000000E+00
   0.1500000E+01  -0.4410400E+00  -0.1073242E+01   0.0000000E+00
   0.1450000E+01  -0.3930664E+00  -0.1286621E+01   0.0000000E+00
   0.1400000E+01  -0.4396973E+00  -0.1259277E+01   0.0000000E+00
   0.1350000E+01  -0.4360352E+00  -0.1146484E+01   0.0000000E+00
   0.1300000E+01  -0.4721680E+00  -0.1242188E+01   0.0000000E+00
   0.1250000E+01  -0.3854980E+00  -0.1635742E+01   0.0000000E+00
   0.1200000E+01  -0.3464355E+00  -0.1467773E+01   0.0000000E+00
   0.1150000E+01  -0.3713379E+00  -0.1603516E+01   0.0000000E+00
   0.1100000E+01  -0.2578125E+00  -0.1462891E+01   0.0000000E+00
   0.1050000E+01  -0.2541504E+00  -0.1397461E+01   0.0000000E+00
   0.1000000E+01  -0.1020508E+00  -0.1499023E+01   0.0000000E+00
   0.9500000E+00  -0.1254883E+00  -0.1245117E+01   0.0000000E+00
   0.9000000E+00  -0.2490234E-01  -0.1550293E+01   0.0000000E+00
   0.8500000E+00  -0.5517578E-01  -0.1505859E+01   0.0000000E+00
   0.8000000E+00  -0.3344727E-01  -0.1404297E+01   0.0000000E+00
   0.7500001E+00  -0.6811523E-01  -0.1363281E+01   0.0000000E+00
   0.7000000E+00   0.5126953E-01  -0.1433594E+01   0.0000000E+00
   0.6500000E+00   0.1074219E-01  -0.1647461E+01   0.0000000E+00
   0.6000000E+00   0.6591797E-02  -0.1643555E+01   0.0000000E+00
   0.5500000E+00   0.7324219E-02  -0.1317383E+01   0.0000000E+00
   0.5000000E+00  -0.3564453E-01  -0.1327148E+01   0.0000000E+00
   0.4500000E+00   0.8300781E-02  -0.1599609E+01   0.0000000E+00
   0.4000000E+00   0.1220703E-01  -0.1365234E+01   0.0000000E+00
   0.3500000E+00   0.6225586E-02  -0.1260742E+01   0.0000000E+00
   0.3000000E+00  -0.4516602E-02  -0.1287109E+01   0.0000000E+00
   0.2500000E+00   0.8666992E-02  -0.1270508E+01   0.0000000E+00
   0.2000000E+00  -0.3906250E-02  -0.1371094E+01   0.0000000E+00
   0.1500000E+00  -0.1293945E-01  -0.1490234E+01   0.0000000E+00
   0.1000000E+00  -0.5065918E-02  -0.1345703E+01   0.0000000E+00
   0.5000000E-01   0.2502441E-02  -0.1347656E+01   0.0000000E+00
Zone t="Force sur  1- Mvt de  1 55",I=  40,F=POINT
   0.2000000E+01   0.4310824E+06   0.1266133E+07   0.0000000E+00
   0.1950000E+01   0.4327154E+06   0.1271642E+07   0.0000000E+00
   0.1900000E+01   0.4386783E+06   0.1278227E+07   0.0000000E+00
   0.1850000E+01   0.4470733E+06   0.1287653E+07   0.0000000E+00
   0.1800000E+01   0.4602874E+06   0.1299018E+07   0.0000000E+00
   0.1750000E+01   0.4728929E+06   0.1311838E+07   0.0000000E+00
   0.1700000E+01   0.4730276E+06   0.1320064E+07   0.0000000E+00
   0.1650000E+01   0.4756999E+06   0.1332482E+07   0.0000000E+00
   0.1600000E+01   0.4799625E+06   0.1351392E+07   0.0000000E+00
   0.1550000E+01   0.4843676E+06   0.1375498E+07   0.0000000E+00
   0.1500000E+01   0.4829339E+06   0.1399590E+07   0.0000000E+00
   0.1450000E+01   0.4741387E+06   0.1421603E+07   0.0000000E+00
   0.1400000E+01   0.4593341E+06   0.1451301E+07   0.0000000E+00
   0.1350000E+01   0.4403679E+06   0.1488863E+07   0.0000000E+00
   0.1300000E+01   0.4111468E+06   0.1522930E+07   0.0000000E+00
   0.1250000E+01   0.3747787E+06   0.1550385E+07   0.0000000E+00
   0.1200000E+01   0.3312389E+06   0.1579445E+07   0.0000000E+00
   0.1150000E+01   0.2844512E+06   0.1606905E+07   0.0000000E+00
   0.1100000E+01   0.2374133E+06   0.1620420E+07   0.0000000E+00
   0.1050000E+01   0.1922844E+06   0.1627140E+07   0.0000000E+00
   0.1000000E+01   0.1520866E+06   0.1632788E+07   0.0000000E+00
   0.9500000E+00   0.1171422E+06   0.1629286E+07   0.0000000E+00
   0.9000000E+00   0.8906874E+05   0.1620712E+07   0.0000000E+00
   0.8500000E+00   0.6685750E+05   0.1614378E+07   0.0000000E+00
   0.8000000E+00   0.4940473E+05   0.1603880E+07   0.0000000E+00
   0.7500001E+00   0.3627465E+05   0.1589790E+07   0.0000000E+00
   0.7000000E+00   0.2645221E+05   0.1581974E+07   0.0000000E+00
   0.6500000E+00   0.1906672E+05   0.1572901E+07   0.0000000E+00
   0.6000000E+00   0.1363021E+05   0.1561902E+07   0.0000000E+00
   0.5500000E+00   0.9623595E+04   0.1555743E+07   0.0000000E+00
   0.5000000E+00   0.6666213E+04   0.1546618E+07   0.0000000E+00
   0.4500000E+00   0.4532313E+04   0.1541377E+07   0.0000000E+00
   0.4000000E+00   0.2987835E+04   0.1536308E+07   0.0000000E+00
   0.3500000E+00   0.1894321E+04   0.1529783E+07   0.0000000E+00
   0.3000000E+00   0.1138022E+04   0.1526401E+07   0.0000000E+00
   0.2500000E+00   0.6332266E+03   0.1524554E+07   0.0000000E+00
   0.2000000E+00   0.3138428E+03   0.1519823E+07   0.0000000E+00
   0.1500000E+00   0.1291338E+03   0.1516514E+07   0.0000000E+00
   0.1000000E+00   0.3758465E+02   0.1514681E+07   0.0000000E+00
   0.5000000E-01   0.4642513E+01   0.1506106E+07   0.0000000E+00
Zone t="Force sur  1- Mvt de  1 66",I=  40,F=POINT
   0.2000000E+01   0.4938434E+06   0.2816284E+07   0.0000000E+00
   0.1950000E+01   0.3262929E+06   0.2720426E+07   0.0000000E+00
   0.1900000E+01   0.2125909E+06   0.2635808E+07   0.0000000E+00
   0.1850000E+01   0.1387404E+06   0.2559336E+07   0.0000000E+00