VARIABLES="Period (s)" "|Fx| (N/m)" "|Fy| (N/m)" "|Fz| (N/m)" "|Cx| (N)" "|Cy| (N)" "|Cz| (N)" "ang(Fx) (°)" "ang(Fy) (°)" "ang(Fz) (°)" "ang(Cx) (°)" "ang(Cy) (°)" "ang(Cz) (°)"
Zone t="Corps  1"
 0.1256637E+03  0.250817E+05  0.144812E+05  0.978595E+06  0.187052E+05  0.323984E+05  0.112464E-01   90.00   90.00    0.02  270.00   90.00  144.63
 0.6283186E+02  0.502963E+05  0.290404E+05  0.971892E+06  0.374574E+05  0.648789E+05  0.107007E+00   89.98   89.98    0.07  269.98   89.98    8.65
 0.4188790E+02  0.755995E+05  0.436536E+05  0.961252E+06  0.562131E+05  0.973666E+05  0.527854E+00   89.96   89.96    0.17  269.96   89.96    1.82
 0.3141593E+02  0.101115E+06  0.583935E+05  0.946899E+06  0.749993E+05  0.129909E+06  0.166162E+01   89.94   89.94    0.30  269.94   89.94    0.63
 0.2513274E+02  0.127007E+06  0.733573E+05  0.929008E+06  0.938430E+05  0.162552E+06  0.405845E+01   89.90   89.90    0.48  269.90   89.90    0.41
 0.2094395E+02  0.153152E+06  0.884746E+05  0.907793E+06  0.112686E+06  0.195196E+06  0.863225E+01   89.84   89.84    0.70  269.84   89.84    0.26
 0.1795196E+02  0.179807E+06  0.103898E+06  0.883255E+06  0.131589E+06  0.227947E+06  0.167192E+02   89.78   89.78    0.97  269.77   89.78    0.18
 0.1570796E+02  0.207145E+06  0.119730E+06  0.855809E+06  0.150636E+06  0.260950E+06  0.298445E+02   89.69   89.69    1.30  269.69   89.69    0.11
 0.1396263E+02  0.235024E+06  0.135891E+06  0.825324E+06  0.169745E+06  0.294058E+06  0.503708E+02   89.58   89.58    1.69  269.58   89.58    0.09
 0.1256637E+02  0.263533E+06  0.152439E+06  0.792623E+06  0.188829E+06  0.327124E+06  0.813513E+02   89.44   89.44    2.15  269.44   89.44    0.05
 0.1142397E+02  0.293439E+06  0.169825E+06  0.757114E+06  0.208389E+06  0.361007E+06  0.127607E+03   89.26   89.26    2.70  269.26   89.26    0.03
 0.1047198E+02  0.324339E+06  0.187823E+06  0.719928E+06  0.228162E+06  0.395246E+06  0.194982E+03   89.04   89.04    3.33  269.03   89.04    0.02
 0.9666439E+01  0.356163E+06  0.206405E+06  0.681115E+06  0.247872E+06  0.429361E+06  0.291471E+03   88.75   88.75    4.07  268.74   88.75    0.02
 0.8975979E+01  0.389322E+06  0.225820E+06  0.640336E+06  0.267941E+06  0.464073E+06  0.428576E+03   88.37   88.37    4.98  268.37   88.38    0.01
 0.8377580E+01  0.424212E+06  0.246324E+06  0.599651E+06  0.288576E+06  0.499706E+06  0.624182E+03   87.91   87.91    5.95  267.90   87.91    0.01
 0.7853982E+01  0.460576E+06  0.267793E+06  0.558008E+06  0.309366E+06  0.535531E+06  0.899770E+03   87.31   87.31    7.09  267.30   87.31    0.01
 0.7391983E+01  0.498089E+06  0.290072E+06  0.516094E+06  0.330387E+06  0.571649E+06  0.128538E+04   86.55   86.55    8.53  266.53   86.56    0.01
 0.6981317E+01  0.535881E+06  0.312694E+06  0.475789E+06  0.350945E+06  0.606825E+06  0.182182E+04   85.63   85.63    9.97  265.59   85.63    0.00
 0.6613879E+01  0.572998E+06  0.335148E+06  0.435862E+06  0.370213E+06  0.639591E+06  0.255952E+04   84.50   84.49   11.64  264.44   84.51  359.99
 0.6283185E+01  0.609461E+06  0.357533E+06  0.397380E+06  0.389029E+06  0.671240E+06  0.358076E+04   83.16   83.14   13.77  263.07   83.17  360.00
 0.5983986E+01  0.642988E+06  0.378575E+06  0.361462E+06  0.406050E+06  0.699413E+06  0.497355E+04   81.66   81.63   15.79  261.51   81.66    0.01
 0.5711987E+01  0.670865E+06  0.396728E+06  0.326975E+06  0.419024E+06  0.720224E+06  0.683519E+04   80.04   79.99   18.02  259.83   80.05  359.99
 0.5463640E+01  0.692166E+06  0.411520E+06  0.295058E+06  0.427894E+06  0.733456E+06  0.930922E+04   78.35   78.26   20.70  258.06   78.37  359.99
 0.5235988E+01  0.705821E+06  0.422390E+06  0.265863E+06  0.433607E+06  0.740603E+06  0.125725E+05   76.74   76.60   23.52  256.31   76.76    0.01
 0.5026548E+01  0.710465E+06  0.428490E+06  0.238470E+06  0.433740E+06  0.737687E+06  0.167692E+05   75.36   75.13   26.32  254.74   75.36  359.99
 0.4833220E+01  0.706590E+06  0.430134E+06  0.212527E+06  0.429070E+06  0.725938E+06  0.221275E+05   74.26   73.90   29.44  253.43   74.29    0.00
 0.4654212E+01  0.694809E+06  0.427638E+06  0.190324E+06  0.421481E+06  0.708604E+06  0.288878E+05   73.55   72.99   33.00  252.44   73.59    0.01
 0.4487990E+01  0.677285E+06  0.422263E+06  0.169578E+06  0.411419E+06  0.686538E+06  0.373363E+05   73.30   72.47   36.44  251.78   73.33  359.96
 0.4333231E+01  0.655254E+06  0.414643E+06  0.150234E+06  0.399119E+06  0.660198E+06  0.477202E+05   73.57   72.33   40.10  251.53   73.59  359.99
 0.4188790E+01  0.629861E+06  0.405348E+06  0.131853E+06  0.385224E+06  0.630875E+06  0.603507E+05   74.31   72.52   44.05  251.69   74.39  359.94
 0.4053668E+01  0.602492E+06  0.395126E+06  0.116955E+06  0.371757E+06  0.601872E+06  0.756965E+05   75.54   73.00   48.27  252.10   75.64  359.94
 0.3926991E+01  0.574572E+06  0.384676E+06  0.102935E+06  0.358764E+06  0.573506E+06  0.941178E+05   77.23   73.68   52.58  252.74   77.32  359.87
 0.3807991E+01  0.546674E+06  0.374066E+06  0.907368E+05  0.345633E+06  0.545228E+06  0.116052E+06   79.31   74.44   57.13  253.54   79.45  359.80
 0.3695992E+01  0.518817E+06  0.362902E+06  0.791607E+05  0.332812E+06  0.517859E+06  0.141789E+06   81.77   75.21   61.87  254.43   82.00  359.66
 0.3590392E+01  0.491708E+06  0.351329E+06  0.684219E+05  0.319690E+06  0.491245E+06  0.172344E+06   84.54   75.84   66.77  255.32   84.93  359.46
 0.3490659E+01  0.465163E+06  0.338530E+06  0.596269E+05  0.307116E+06  0.466976E+06  0.207788E+06   87.60   76.28   71.80  255.96   88.05  359.18
 0.3396317E+01  0.439421E+06  0.324221E+06  0.526904E+05  0.293571E+06  0.443758E+06  0.249803E+06   90.90   76.44   77.20  256.39   91.45  358.74
 0.3306940E+01  0.414161E+06  0.307444E+06  0.454299E+05  0.278297E+06  0.421382E+06  0.298054E+06   94.42   76.30   82.83  256.65   95.14  358.14
 0.3222147E+01  0.389210E+06  0.287581E+06  0.399717E+05  0.261094E+06  0.399738E+06  0.353773E+06   98.20   75.98   88.48  256.76   99.12  357.26
 0.3141593E+01  0.364822E+06  0.264856E+06  0.332533E+05  0.241577E+06  0.378887E+06  0.417962E+06  102.24   75.55   93.42  256.87  103.42  356.02
