VARIABLES="Theta (rad)" "ABS(HKochin)" "ANGLE(HKochin)"
Zone t="Diffraction - beta =  30.000 at frequency  0.0500 rad/s",I=   181,F=POINT
 -0.3141593E+01  0.3434845E+00  0.3141370E+01
 -0.3106686E+01  0.3444369E+00  0.3141364E+01
 -0.3071780E+01  0.3490995E+00  0.3141368E+01
 -0.3036873E+01  0.3471727E+00  0.3141373E+01
 -0.3001966E+01  0.3460880E+00  0.3141373E+01
 -0.2967060E+01  0.3472895E+00  0.3141370E+01
 -0.2932153E+01  0.3538766E+00  0.3141375E+01
 -0.2897247E+01  0.3546006E+00  0.3141377E+01
 -0.2862340E+01  0.3522198E+00  0.3141371E+01
 -0.2827433E+01  0.3540958E+00  0.3141375E+01
 -0.2792527E+01  0.3546177E+00  0.3141376E+01
 -0.2757620E+01  0.3549486E+00  0.3141379E+01
 -0.2722714E+01  0.3548926E+00  0.3141373E+01
 -0.2687807E+01  0.3553288E+00  0.3141374E+01
 -0.2652900E+01  0.3546205E+00  0.3141376E+01
 -0.2617994E+01  0.3560728E+00  0.3141379E+01
 -0.2583087E+01  0.3567647E+00  0.3141372E+01
 -0.2548181E+01  0.3553979E+00  0.3141375E+01
 -0.2513274E+01  0.3561293E+00  0.3141372E+01
 -0.2478368E+01  0.3544966E+00  0.3141376E+01
 -0.2443461E+01  0.3563390E+00  0.3141370E+01
 -0.2408554E+01  0.3532668E+00  0.3141375E+01
 -0.2373648E+01  0.3535645E+00  0.3141381E+01
 -0.2338741E+01  0.3526160E+00  0.3141378E+01
 -0.2303835E+01  0.3504539E+00  0.3141373E+01
 -0.2268928E+01  0.3516636E+00  0.3141374E+01
 -0.2234021E+01  0.3477753E+00  0.3141371E+01
 -0.2199115E+01  0.3474856E+00  0.3141372E+01
 -0.2164208E+01  0.3449880E+00  0.3141366E+01
 -0.2129302E+01  0.3442534E+00  0.3141360E+01
 -0.2094395E+01  0.3419769E+00  0.3141366E+01
 -0.2059489E+01  0.3387202E+00  0.3141362E+01
 -0.2024582E+01  0.3377532E+00  0.3141361E+01
 -0.1989675E+01  0.3354794E+00  0.3141364E+01
 -0.1954769E+01  0.3342170E+00  0.3141357E+01
 -0.1919862E+01  0.3318504E+00  0.3141353E+01
 -0.1884956E+01  0.3289233E+00  0.3141351E+01
 -0.1850049E+01  0.3262438E+00  0.3141352E+01
 -0.1815143E+01  0.3269584E+00  0.3141341E+01
 -0.1780236E+01  0.3241290E+00  0.3141348E+01
 -0.1745329E+01  0.3171151E+00  0.3141335E+01
 -0.1710423E+01  0.3159040E+00  0.3141341E+01
 -0.1675516E+01  0.3140973E+00  0.3141334E+01
 -0.1640610E+01  0.3131946E+00  0.3141339E+01
 -0.1605703E+01  0.3075877E+00  0.3141327E+01
 -0.1570796E+01  0.3050567E+00  0.3141300E+01
 -0.1535890E+01  0.3016546E+00  0.3141329E+01
 -0.1500983E+01  0.2987091E+00  0.3141319E+01
 -0.1466077E+01  0.2931060E+00  0.3141310E+01
 -0.1431170E+01  0.2878318E+00  0.3141311E+01
 -0.1396263E+01  0.2875323E+00  0.3141311E+01
 -0.1361357E+01  0.2848873E+00  0.3141303E+01
 -0.1326450E+01  0.2803945E+00  0.3141309E+01
 -0.1291544E+01  0.2777958E+00  0.3141295E+01
 -0.1256637E+01  0.2756082E+00  0.3141295E+01
 -0.1221731E+01  0.2707444E+00  0.3141297E+01
 -0.1186824E+01  0.2665872E+00  0.3141276E+01
 -0.1151917E+01  0.2639945E+00  0.3141283E+01
 -0.1117011E+01  0.2602288E+00  0.3141277E+01
 -0.1082104E+01  0.2570356E+00  0.3141256E+01
 -0.1047198E+01  0.2529861E+00  0.3141272E+01
 -0.1012291E+01  0.2496179E+00  0.3141248E+01
 -0.9773844E+00  0.2458333E+00  0.3141249E+01
 -0.9424778E+00  0.2421271E+00  0.3141242E+01
 -0.9075713E+00  0.2386405E+00  0.3141234E+01
 -0.8726646E+00  0.2341373E+00  0.3141240E+01
 -0.8377581E+00  0.2311729E+00  0.3141225E+01
 -0.8028514E+00  0.2274045E+00  0.3141213E+01
 -0.7679449E+00  0.2238454E+00  0.3141209E+01
 -0.7330383E+00  0.2206922E+00  0.3141191E+01
 -0.6981317E+00  0.2167066E+00  0.3141185E+01
 -0.6632251E+00  0.2135919E+00  0.3141182E+01
 -0.6283185E+00  0.2098791E+00  0.3141183E+01
 -0.5934120E+00  0.2069602E+00  0.3141164E+01
 -0.5585054E+00  0.2029354E+00  0.3141162E+01
 -0.5235988E+00  0.2004116E+00  0.3141164E+01
 -0.4886922E+00  0.1976561E+00  0.3141155E+01
 -0.4537856E+00  0.1946236E+00  0.3141132E+01
 -0.4188790E+00  0.1915759E+00  0.3141144E+01
 -0.3839725E+00  0.1892199E+00  0.3141131E+01
 -0.3490659E+00  0.1857409E+00  0.3141097E+01
 -0.3141593E+00  0.1816193E+00  0.3141111E+01
 -0.2792527E+00  0.1807863E+00  0.3141106E+01
 -0.2443461E+00  0.1773189E+00  0.3141072E+01
 -0.2094395E+00  0.1738207E+00  0.3141078E+01
 -0.1745329E+00  0.1748856E+00  0.3141069E+01
 -0.1396263E+00  0.1751547E+00  0.3141096E+01
 -0.1047198E+00  0.1695747E+00  0.3141056E+01
 -0.6981317E-01  0.1644722E+00  0.3141042E+01
 -0.3490658E-01  0.1640757E+00  0.3141039E+01
  0.0000000E+00  0.1616041E+00  0.3141026E+01
  0.3490658E-01  0.1606504E+00  0.3141042E+01
  0.6981317E-01  0.1561365E+00  0.3140997E+01
  0.1047198E+00  0.1575086E+00  0.3141026E+01
  0.1396263E+00  0.1589438E+00  0.3141036E+01
  0.1745329E+00  0.1578072E+00  0.3141025E+01
  0.2094395E+00  0.1511747E+00  0.3140981E+01
  0.2443461E+00  0.1504272E+00  0.3140992E+01
  0.2792527E+00  0.1528385E+00  0.3141003E+01
  0.3141593E+00  0.1508207E+00  0.3140975E+01
  0.3490659E+00  0.1504497E+00  0.3140999E+01
  0.3839725E+00  0.1501571E+00  0.3140991E+01
  0.4188790E+00  0.1503358E+00  0.3140997E+01
  0.4537856E+00  0.1498619E+00  0.3140985E+01
  0.4886922E+00  0.1504771E+00  0.3140994E+01
  0.5235988E+00  0.1490463E+00  0.3140969E+01
  0.5585054E+00  0.1482834E+00  0.3140987E+01
  0.5934120E+00  0.1496790E+00  0.3140970E+01
  0.6283185E+00  0.1490476E+00  0.3140980E+01
  0.6632251E+00  0.1505731E+00  0.3141005E+01
  0.6981317E+00  0.1488152E+00  0.3140987E+01
  0.7330383E+00  0.1517923E+00  0.3140984E+01
  0.7679449E+00  0.1515474E+00  0.3141004E+01
  0.8028514E+00  0.1524922E+00  0.3140999E+01
  0.8377581E+00  0.1546332E+00  0.3141026E+01
  0.8726646E+00  0.1534858E+00  0.3140998E+01
  0.9075713E+00  0.1572742E+00  0.3141016E+01
  0.9424778E+00  0.1576882E+00  0.3141014E+01
  0.9773844E+00  0.1601051E+00  0.3141034E+01
  0.1012291E+01  0.1607735E+00  0.3141041E+01
  0.1047198E+01  0.1631097E+00  0.3141049E+01
  0.1082104E+01  0.1663824E+00  0.3141055E+01
  0.1117011E+01  0.1674385E+00  0.3141051E+01
  0.1151917E+01  0.1697250E+00  0.3141072E+01
  0.1186824E+01  0.1708993E+00  0.3141069E+01
  0.1221731E+01  0.1732416E+00  0.3141106E+01
  0.1256637E+01  0.1760278E+00  0.3141100E+01
  0.1291544E+01  0.1788561E+00  0.3141080E+01
  0.1326450E+01  0.1780405E+00  0.3141104E+01
  0.1361357E+01  0.1809490E+00  0.3141107E+01
  0.1396263E+01  0.1879691E+00  0.3141116E+01
  0.1431170E+01  0.1891325E+00  0.3141141E+01
  0.1466077E+01  0.1906773E+00  0.3141124E+01
  0.1500983E+01  0.1921380E+00  0.3141118E+01
  0.1535890E+01  0.1975191E+00  0.3141155E+01
  0.1570796E+01  0.2000488E+00  0.3141111E+01
  0.1605703E+01  0.2034530E+00  0.3141164E+01
  0.1640610E+01  0.2065166E+00  0.3141167E+01
  0.1675516E+01  0.2115668E+00  0.3141178E+01
  0.1710423E+01  0.2172206E+00  0.3141196E+01
  0.1745329E+01  0.2175796E+00  0.3141203E+01
  0.1780236E+01  0.2201631E+00  0.3141199E+01
  0.1815143E+01  0.2246088E+00  0.3141209E+01
  0.1850049E+01  0.2272695E+00  0.3141212E+01
  0.1884956E+01  0.2293603E+00  0.3141213E+01
  0.1919862E+01  0.2343397E+00  0.3141229E+01
  0.1954769E+01  0.2385490E+00  0.3141233E+01
  0.1989675E+01  0.2411803E+00  0.3141242E+01
  0.2024582E+01  0.2449661E+00  0.3141253E+01
  0.2059489E+01  0.2480948E+00  0.3141255E+01
  0.2094395E+01  0.2520977E+00  0.3141264E+01
  0.2129302E+01  0.2554448E+00  0.3141264E+01
  0.2164208E+01  0.2592871E+00  0.3141271E+01
  0.2199115E+01  0.2630453E+00  0.3141283E+01
  0.2234021E+01  0.2664241E+00  0.3141279E+01
  0.2268928E+01  0.2710402E+00  0.3141290E+01
  0.2303835E+01  0.2739057E+00  0.3141295E+01
  0.2338741E+01  0.2777299E+00  0.3141297E+01
  0.2373648E+01  0.2812728E+00  0.3141299E+01
  0.2408554E+01  0.2844064E+00  0.3141310E+01
  0.2443461E+01  0.2885028E+00  0.3141302E+01
  0.2478368E+01  0.2914936E+00  0.3141322E+01
  0.2513274E+01  0.2952967E+00  0.3141319E+01
  0.2548181E+01  0.2981608E+00  0.3141314E+01
  0.2583087E+01  0.3021335E+00  0.3141322E+01
  0.2617994E+01  0.3046970E+00  0.3141333E+01
  0.2652900E+01  0.3074709E+00  0.3141331E+01
  0.2687807E+01  0.3105654E+00  0.3141333E+01
  0.2722714E+01  0.3136201E+00  0.3141340E+01
  0.2757620E+01  0.3159003E+00  0.3141340E+01
  0.2792527E+01  0.3193479E+00  0.3141347E+01
  0.2827433E+01  0.3233120E+00  0.3141350E+01
  0.2862340E+01  0.3242439E+00  0.3141351E+01
  0.2897247E+01  0.3276864E+00  0.3141354E+01
  0.2932153E+01  0.3312268E+00  0.3141355E+01
  0.2967060E+01  0.3301859E+00  0.3141352E+01
  0.3001966E+01  0.3298712E+00  0.3141354E+01
  0.3036873E+01  0.3350410E+00  0.3141361E+01
  0.3071780E+01  0.3408133E+00  0.3141371E+01
  0.3106686E+01  0.3410161E+00  0.3141366E+01
  0.3141593E+01  0.3434845E+00  0.3141365E+01
Zone t="Diffraction - beta =  30.000 at frequency  0.1000 rad/s",I=   181,F=POINT
 -0.3141593E+01  0.6864887E+00  0.3140707E+01
 -0.3106686E+01  0.6911454E+00  0.3140718E+01
 -0.3071780E+01  0.6915414E+00  0.3140721E+01
 -0.3036873E+01  0.6977162E+00  0.3140728E+01
 -0.3001966E+01  0.7010055E+00  0.3140733E+01
 -0.2967060E+01  0.7007712E+00  0.3140734E+01
 -0.2932153E+01  0.7052881E+00  0.3140740E+01
 -0.2897247E+01  0.7062641E+00  0.3140740E+01
 -0.2862340E+01  0.7086178E+00  0.3140746E+01
 -0.2827433E+01  0.7099710E+00  0.3140746E+01
 -0.2792527E+01  0.7120171E+00  0.3140751E+01
 -0.2757620E+01  0.7125624E+00  0.3140754E+01
 -0.2722714E+01  0.7134482E+00  0.3140750E+01
 -0.2687807E+01  0.7148243E+00  0.3140753E+01
 -0.2652900E+01  0.7144510E+00  0.3140757E+01
 -0.2617994E+01  0.7142230E+00  0.3140757E+01
 -0.2583087E+01  0.7146524E+00  0.3140754E+01
 -0.2548181E+01  0.7143260E+00  0.3140755E+01
 -0.2513274E+01  0.7136375E+00  0.3140756E+01
 -0.2478368E+01  0.7125819E+00  0.3140749E+01
 -0.2443461E+01  0.7118884E+00  0.3140747E+01
 -0.2408554E+01  0.7104939E+00  0.3140745E+01
 -0.2373648E+01  0.7083784E+00  0.3140747E+01
 -0.2338741E+01  0.7065198E+00  0.3140743E+01
 -0.2303835E+01  0.7047553E+00  0.3140736E+01
 -0.2268928E+01  0.7024266E+00  0.3140737E+01
 -0.2234021E+01  0.6993736E+00  0.3140732E+01
 -0.2199115E+01  0.6966271E+00  0.3140725E+01
 -0.2164208E+01  0.6936113E+00  0.3140721E+01
 -0.2129302E+01  0.6902100E+00  0.3140717E+01
 -0.2094395E+01  0.6861092E+00  0.3140710E+01
 -0.2059489E+01  0.6827615E+00  0.3140706E+01
 -0.2024582E+01  0.6793931E+00  0.3140698E+01
 -0.1989675E+01  0.6745388E+00  0.3140688E+01
 -0.1954769E+01  0.6700278E+00  0.3140680E+01
 -0.1919862E+01  0.6658406E+00  0.3140673E+01
 -0.1884956E+01  0.6606395E+00  0.3140661E+01
 -0.1850049E+01  0.6557798E+00  0.3140654E+01
 -0.1815143E+01  0.6500906E+00  0.3140643E+01
 -0.1780236E+01  0.6457006E+00  0.3140637E+01
 -0.1745329E+01  0.6386528E+00  0.3140623E+01
 -0.1710423E+01  0.6349496E+00  0.3140613E+01
 -0.1675516E+01  0.6285627E+00  0.3140606E+01
 -0.1640610E+01  0.6214788E+00  0.3140588E+01
 -0.1605703E+01  0.6181286E+00  0.3140580E+01
 -0.1570796E+01  0.6096191E+00  0.3140571E+01
 -0.1535890E+01  0.6001964E+00  0.3140544E+01
 -0.1500983E+01  0.5947608E+00  0.3140530E+01
 -0.1466077E+01  0.5910478E+00  0.3140526E+01
 -0.1431170E+01  0.5839629E+00  0.3140506E+01
 -0.1396263E+01  0.5764206E+00  0.3140488E+01
 -0.1361357E+01  0.5699584E+00  0.3140474E+01
 -0.1326450E+01  0.5628296E+00  0.3140454E+01
 -0.1291544E+01  0.5555928E+00  0.3140440E+01
 -0.1256637E+01  0.5482109E+00  0.3140415E+01
 -0.1221731E+01  0.5413343E+00  0.3140400E+01
 -0.1186824E+01  0.5339127E+00  0.3140377E+01
 -0.1151917E+01  0.5263882E+00  0.3140358E+01
 -0.1117011E+01  0.5191153E+00  0.3140333E+01
 -0.1082104E+01  0.5117067E+00  0.3140318E+01
 -0.1047198E+01  0.5046018E+00  0.3140290E+01
 -0.1012291E+01  0.4971444E+00  0.3140269E+01
 -0.9773844E+00  0.4897497E+00  0.3140244E+01
 -0.9424778E+00  0.4825479E+00  0.3140221E+01
 -0.9075713E+00  0.4752254E+00  0.3140194E+01
 -0.8726646E+00  0.4678638E+00  0.3140169E+01
 -0.8377581E+00  0.4608019E+00  0.3140144E+01
 -0.8028514E+00  0.4536110E+00  0.3140117E+01
 -0.7679449E+00  0.4466532E+00  0.3140083E+01
 -0.7330383E+00  0.4393435E+00  0.3140059E+01
 -0.6981317E+00  0.4324931E+00  0.3140034E+01
 -0.6632251E+00  0.4258398E+00  0.3140000E+01
 -0.6283185E+00  0.4189627E+00  0.3139972E+01
 -0.5934120E+00  0.4123433E+00  0.3139938E+01
 -0.5585054E+00  0.4057531E+00  0.3139908E+01
 -0.5235988E+00  0.3995090E+00  0.3139874E+01
 -0.4886922E+00  0.3932717E+00  0.3139844E+01
 -0.4537856E+00  0.3866738E+00  0.3139814E+01
 -0.4188790E+00  0.3809653E+00  0.3139780E+01
 -0.3839725E+00  0.3749335E+00  0.3139753E+01
 -0.3490659E+00  0.3687559E+00  0.3139702E+01
 -0.3141593E+00  0.3639117E+00  0.3139683E+01
 -0.2792527E+00  0.3581420E+00  0.3139652E+01
 -0.2443461E+00  0.3529820E+00  0.3139621E+01
 -0.2094395E+00  0.3473070E+00  0.3139584E+01
 -0.1745329E+00  0.3442046E+00  0.3139562E+01
 -0.1396263E+00  0.3372027E+00  0.3139512E+01
 -0.1047198E+00  0.3327330E+00  0.3139482E+01
 -0.6981317E-01  0.3326561E+00  0.3139481E+01
 -0.3490658E-01  0.3278233E+00  0.3139450E+01
  0.0000000E+00  0.3223962E+00  0.3139405E+01
  0.3490658E-01  0.3174596E+00  0.3139360E+01
  0.6981317E-01  0.3172826E+00  0.3139365E+01
  0.1047198E+00  0.3109378E+00  0.3139326E+01
  0.1396263E+00  0.3077346E+00  0.3139292E+01
  0.1745329E+00  0.3082569E+00  0.3139286E+01
  0.2094395E+00  0.3035193E+00  0.3139251E+01
  0.2443461E+00  0.3025577E+00  0.3139250E+01
  0.2792527E+00  0.3002472E+00  0.3139226E+01
  0.3141593E+00  0.2989191E+00  0.3139218E+01
  0.3490659E+00  0.2968099E+00  0.3139194E+01
  0.3839725E+00  0.2962753E+00  0.3139185E+01
  0.4188790E+00  0.2953304E+00  0.3139186E+01
  0.4537856E+00  0.2940401E+00  0.3139173E+01
  0.4886922E+00  0.2944325E+00  0.3139169E+01
  0.5235988E+00  0.2946248E+00  0.3139177E+01
  0.5585054E+00  0.2941899E+00  0.3139175E+01
  0.5934120E+00  0.2945549E+00  0.3139179E+01
  0.6283185E+00  0.2952564E+00  0.3139187E+01
  0.6632251E+00  0.2963175E+00  0.3139193E+01
  0.6981317E+00  0.2969450E+00  0.3139192E+01
  0.7330383E+00  0.2983874E+00  0.3139206E+01
  0.7679449E+00  0.3005140E+00  0.3139226E+01
  0.8028514E+00  0.3023815E+00  0.3139243E+01
  0.8377581E+00  0.3041378E+00  0.3139264E+01
  0.8726646E+00  0.3064336E+00  0.3139282E+01
  0.9075713E+00  0.3095650E+00  0.3139299E+01
  0.9424778E+00  0.3123055E+00  0.3139329E+01
  0.9773844E+00  0.3153093E+00  0.3139356E+01
  0.1012291E+01  0.3187025E+00  0.3139375E+01
  0.1047198E+01  0.3227972E+00  0.3139411E+01
  0.1082104E+01  0.3261814E+00  0.3139440E+01
  0.1117011E+01  0.3295492E+00  0.3139462E+01
  0.1151917E+01  0.3343243E+00  0.3139502E+01
  0.1186824E+01  0.3389032E+00  0.3139528E+01
  0.1221731E+01  0.3430814E+00  0.3139552E+01
  0.1256637E+01  0.3483310E+00  0.3139591E+01
  0.1291544E+01  0.3531939E+00  0.3139625E+01
  0.1326450E+01  0.3588359E+00  0.3139656E+01
  0.1361357E+01  0.3632136E+00  0.3139679E+01
  0.1396263E+01  0.3705113E+00  0.3139725E+01
  0.1431170E+01  0.3738731E+00  0.3139753E+01
  0.1466077E+01  0.3802516E+00  0.3139785E+01
  0.1500983E+01  0.3875627E+00  0.3139817E+01
  0.1535890E+01  0.3904833E+00  0.3139840E+01
  0.1570796E+01  0.3993980E+00  0.3139891E+01
  0.1605703E+01  0.4083140E+00  0.3139928E+01
  0.1640610E+01  0.4142345E+00  0.3139953E+01
  0.1675516E+01  0.4178029E+00  0.3139966E+01
  0.1710423E+01  0.4248908E+00  0.3140000E+01
  0.1745329E+01  0.4327917E+00  0.3140033E+01
  0.1780236E+01  0.4390180E+00  0.3140060E+01
  0.1815143E+01  0.4461363E+00  0.3140085E+01
  0.1850049E+01  0.4534316E+00  0.3140117E+01
  0.1884956E+01  0.4608601E+00  0.3140141E+01
  0.1919862E+01  0.4676664E+00  0.3140171E+01
  0.1954769E+01  0.4751068E+00  0.3140194E+01
  0.1989675E+01  0.4825854E+00  0.3140218E+01
  0.2024582E+01  0.4899487E+00  0.3140248E+01
  0.2059489E+01  0.4973373E+00  0.3140270E+01
  0.2094395E+01  0.5044406E+00  0.3140292E+01
  0.2129302E+01  0.5118822E+00  0.3140311E+01
  0.2164208E+01  0.5192732E+00  0.3140337E+01
  0.2199115E+01  0.5265105E+00  0.3140365E+01
  0.2234021E+01  0.5338419E+00  0.3140381E+01
  0.2268928E+01  0.5411389E+00  0.3140399E+01
  0.2303835E+01  0.5482264E+00  0.3140421E+01
  0.2338741E+01  0.5554332E+00  0.3140439E+01
  0.2373648E+01  0.5623839E+00  0.3140456E+01
  0.2408554E+01  0.5696661E+00  0.3140473E+01
  0.2443461E+01  0.5764835E+00  0.3140487E+01
  0.2478368E+01  0.5831895E+00  0.3140506E+01
  0.2513274E+01  0.5900606E+00  0.3140519E+01
  0.2548181E+01  0.5966445E+00  0.3140531E+01
  0.2583087E+01  0.6031998E+00  0.3140547E+01
  0.2617994E+01  0.6094544E+00  0.3140564E+01
  0.2652900E+01  0.6157117E+00  0.3140574E+01
  0.2687807E+01  0.6223063E+00  0.3140585E+01
  0.2722714E+01  0.6279333E+00  0.3140604E+01
  0.2757620E+01  0.6339937E+00  0.3140613E+01
  0.2792527E+01  0.6401446E+00  0.3140627E+01
  0.2827433E+01  0.6450689E+00  0.3140637E+01
  0.2862340E+01  0.6507831E+00  0.3140648E+01
  0.2897247E+01  0.6559238E+00  0.3140656E+01
  0.2932153E+01  0.6615773E+00  0.3140666E+01
  0.2967060E+01  0.6648414E+00  0.3140671E+01
  0.3001966E+01  0.6715794E+00  0.3140682E+01
  0.3036873E+01  0.6760532E+00  0.3140693E+01
  0.3071780E+01  0.6761793E+00  0.3140686E+01
  0.3106686E+01  0.6807851E+00  0.3140700E+01
  0.3141593E+01  0.6864889E+00  0.3140706E+01
Zone t="Diffraction - beta =  30.000 at frequency  0.1500 rad/s",I=   181,F=POINT
 -0.3141593E+01  0.1031422E+01  0.3139606E+01
 -0.3106686E+01  0.1034382E+01  0.3139617E+01
 -0.3071780E+01  0.1042543E+01  0.3139636E+01
 -0.3036873E+01  0.1046439E+01  0.3139645E+01
 -0.3001966E+01  0.1050685E+01  0.3139652E+01
 -0.2967060E+01  0.1054481E+01  0.3139665E+01
 -0.2932153E+01  0.1058386E+01  0.3139672E+01
 -0.2897247E+01  0.1062083E+01  0.3139682E+01
 -0.2862340E+01  0.1064634E+01  0.3139688E+01
 -0.2827433E+01  0.1067085E+01  0.3139695E+01
 -0.2792527E+01  0.1069214E+01  0.3139701E+01
 -0.2757620E+01  0.1070953E+01  0.3139704E+01
 -0.2722714E+01  0.1072451E+01  0.3139708E+01
 -0.2687807E+01  0.1073389E+01  0.3139708E+01
 -0.2652900E+01  0.1073694E+01  0.3139711E+01
 -0.2617994E+01  0.1074249E+01  0.3139711E+01
 -0.2583087E+01  0.1073867E+01  0.3139710E+01
 -0.2548181E+01  0.1073479E+01  0.3139710E+01
 -0.2513274E+01  0.1072471E+01  0.3139707E+01
 -0.2478368E+01  0.1071117E+01  0.3139704E+01
 -0.2443461E+01  0.1069507E+01  0.3139699E+01
 -0.2408554E+01  0.1067412E+01  0.3139694E+01
 -0.2373648E+01  0.1064755E+01  0.3139690E+01
 -0.2338741E+01  0.1061894E+01  0.3139682E+01
 -0.2303835E+01  0.1058799E+01  0.3139675E+01
 -0.2268928E+01  0.1055152E+01  0.3139664E+01
 -0.2234021E+01  0.1051070E+01  0.3139653E+01
 -0.2199115E+01  0.1046788E+01  0.3139647E+01
 -0.2164208E+01  0.1042099E+01  0.3139635E+01
 -0.2129302E+01  0.1036889E+01  0.3139621E+01
 -0.2094395E+01  0.1031625E+01  0.3139606E+01
 -0.2059489E+01  0.1025585E+01  0.3139594E+01
 -0.2024582E+01  0.1019834E+01  0.3139576E+01
 -0.1989675E+01  0.1013479E+01  0.3139560E+01
 -0.1954769E+01  0.1006692E+01  0.3139543E+01
 -0.1919862E+01  0.9997857E+00  0.3139523E+01
 -0.1884956E+01  0.9924214E+00  0.3139504E+01
 -0.1850049E+01  0.9849198E+00  0.3139484E+01
 -0.1815143E+01  0.9768649E+00  0.3139462E+01
 -0.1780236E+01  0.9686308E+00  0.3139439E+01
 -0.1745329E+01  0.9602185E+00  0.3139414E+01
 -0.1710423E+01  0.9516212E+00  0.3139389E+01
 -0.1675516E+01  0.9428262E+00  0.3139360E+01
 -0.1640610E+01  0.9345695E+00  0.3139336E+01
 -0.1605703E+01  0.9231715E+00  0.3139304E+01
 -0.1570796E+01  0.9150062E+00  0.3139277E+01
 -0.1535890E+01  0.9048624E+00  0.3139244E+01
 -0.1500983E+01  0.8954952E+00  0.3139210E+01
 -0.1466077E+01  0.8849341E+00  0.3139176E+01
 -0.1431170E+01  0.8750392E+00  0.3139143E+01
 -0.1396263E+01  0.8644984E+00  0.3139104E+01
 -0.1361357E+01  0.8544437E+00  0.3139070E+01
 -0.1326450E+01  0.8435904E+00  0.3139027E+01
 -0.1291544E+01  0.8326824E+00  0.3138988E+01
 -0.1256637E+01  0.8218762E+00  0.3138942E+01
 -0.1221731E+01  0.8108484E+00  0.3138898E+01
 -0.1186824E+01  0.8000014E+00  0.3138854E+01
 -0.1151917E+01  0.7890358E+00  0.3138808E+01
 -0.1117011E+01  0.7778953E+00  0.3138758E+01
 -0.1082104E+01  0.7668707E+00  0.3138710E+01
 -0.1047198E+01  0.7557482E+00  0.3138658E+01
 -0.1012291E+01  0.7445444E+00  0.3138604E+01
 -0.9773844E+00  0.7333982E+00  0.3138549E+01
 -0.9424778E+00  0.7222334E+00  0.3138493E+01
 -0.9075713E+00  0.7112839E+00  0.3138435E+01
 -0.8726646E+00  0.7003064E+00  0.3138375E+01
 -0.8377581E+00  0.6893304E+00  0.3138315E+01
 -0.8028514E+00  0.6785212E+00  0.3138249E+01
 -0.7679449E+00  0.6677900E+00  0.3138186E+01
 -0.7330383E+00  0.6570538E+00  0.3138122E+01
 -0.6981317E+00  0.6465095E+00  0.3138053E+01
 -0.6632251E+00  0.6361901E+00  0.3137988E+01
 -0.6283185E+00  0.6260192E+00  0.3137921E+01
 -0.5934120E+00  0.6158412E+00  0.3137854E+01
 -0.5585054E+00  0.6059833E+00  0.3137778E+01
 -0.5235988E+00  0.5961028E+00  0.3137703E+01
 -0.4886922E+00  0.5866690E+00  0.3137630E+01
 -0.4537856E+00  0.5773013E+00  0.3137557E+01
 -0.4188790E+00  0.5681588E+00  0.3137480E+01
 -0.3839725E+00  0.5593656E+00  0.3137410E+01
 -0.3490659E+00  0.5508427E+00  0.3137336E+01
 -0.3141593E+00  0.5422644E+00  0.3137259E+01
 -0.2792527E+00  0.5342034E+00  0.3137179E+01
 -0.2443461E+00  0.5259370E+00  0.3137102E+01
 -0.2094395E+00  0.5183877E+00  0.3137031E+01
 -0.1745329E+00  0.5116097E+00  0.3136962E+01
 -0.1396263E+00  0.5042475E+00  0.3136886E+01
 -0.1047198E+00  0.4979663E+00  0.3136818E+01
 -0.6981317E-01  0.4907357E+00  0.3136734E+01
 -0.3490658E-01  0.4876753E+00  0.3136700E+01
  0.0000000E+00  0.4793757E+00  0.3136612E+01
  0.3490658E-01  0.4763643E+00  0.3136572E+01
  0.6981317E-01  0.4682250E+00  0.3136474E+01
  0.1047198E+00  0.4645330E+00  0.3136428E+01
  0.1396263E+00  0.4598920E+00  0.3136375E+01
  0.1745329E+00  0.4562557E+00  0.3136320E+01
  0.2094395E+00  0.4523038E+00  0.3136272E+01
  0.2443461E+00  0.4485943E+00  0.3136224E+01
  0.2792527E+00  0.4461105E+00  0.3136190E+01
  0.3141593E+00  0.4435673E+00  0.3136155E+01
  0.3490659E+00  0.4415063E+00  0.3136131E+01
  0.3839725E+00  0.4397560E+00  0.3136101E+01
  0.4188790E+00  0.4383076E+00  0.3136084E+01
  0.4537856E+00  0.4373197E+00  0.3136066E+01
  0.4886922E+00  0.4369763E+00  0.3136066E+01
  0.5235988E+00  0.4364959E+00  0.3136061E+01
  0.5585054E+00  0.4368263E+00  0.3136064E+01
  0.5934120E+00  0.4372482E+00  0.3136066E+01
  0.6283185E+00  0.4382650E+00  0.3136079E+01
  0.6632251E+00  0.4396363E+00  0.3136108E+01
  0.6981317E+00  0.4412500E+00  0.3136124E+01
  0.7330383E+00  0.4433545E+00  0.3136152E+01
  0.7679449E+00  0.4460492E+00  0.3136187E+01
  0.8028514E+00  0.4489175E+00  0.3136229E+01
  0.8377581E+00  0.4520195E+00  0.3136268E+01
  0.8726646E+00  0.4556899E+00  0.3136323E+01
  0.9075713E+00  0.4597932E+00  0.3136365E+01
  0.9424778E+00  0.4640917E+00  0.3136423E+01
  0.9773844E+00  0.4688056E+00  0.3136483E+01
  0.1012291E+01  0.4739840E+00  0.3136547E+01
  0.1047198E+01  0.4793427E+00  0.3136611E+01
  0.1082104E+01  0.4853443E+00  0.3136676E+01
  0.1117011E+01  0.4911541E+00  0.3136742E+01
  0.1151917E+01  0.4975917E+00  0.3136811E+01
  0.1186824E+01  0.5043344E+00  0.3136882E+01
  0.1221731E+01  0.5112842E+00  0.3136959E+01
  0.1256637E+01  0.5186094E+00  0.3137029E+01
  0.1291544E+01  0.5262114E+00  0.3137106E+01
  0.1326450E+01  0.5338537E+00  0.3137179E+01
  0.1361357E+01  0.5424911E+00  0.3137257E+01
  0.1396263E+01  0.5509080E+00  0.3137330E+01
  0.1431170E+01  0.5593941E+00  0.3137408E+01
  0.1466077E+01  0.5681844E+00  0.3137486E+01
  0.1500983E+01  0.5768232E+00  0.3137552E+01
  0.1535890E+01  0.5873486E+00  0.3137640E+01
  0.1570796E+01  0.5962396E+00  0.3137705E+01
  0.1605703E+01  0.6075222E+00  0.3137790E+01
  0.1640610E+01  0.6159332E+00  0.3137848E+01
  0.1675516E+01  0.6262544E+00  0.3137923E+01
  0.1710423E+01  0.6361110E+00  0.3137987E+01
  0.1745329E+01  0.6467923E+00  0.3138057E+01
  0.1780236E+01  0.6568611E+00  0.3138122E+01
  0.1815143E+01  0.6676518E+00  0.3138184E+01
  0.1850049E+01  0.6786829E+00  0.3138253E+01
  0.1884956E+01  0.6894388E+00  0.3138319E+01
  0.1919862E+01  0.7005284E+00  0.3138375E+01
  0.1954769E+01  0.7113568E+00  0.3138434E+01
  0.1989675E+01  0.7223568E+00  0.3138489E+01
  0.2024582E+01  0.7334505E+00  0.3138547E+01
  0.2059489E+01  0.7444432E+00  0.3138603E+01
  0.2094395E+01  0.7556139E+00  0.3138657E+01
  0.2129302E+01  0.7668091E+00  0.3138709E+01
  0.2164208E+01  0.7779358E+00  0.3138756E+01
  0.2199115E+01  0.7890874E+00  0.3138807E+01
  0.2234021E+01  0.8000174E+00  0.3138853E+01
  0.2268928E+01  0.8110077E+00  0.3138902E+01
  0.2303835E+01  0.8219411E+00  0.3138946E+01
  0.2338741E+01  0.8327734E+00  0.3138984E+01
  0.2373648E+01  0.8434751E+00  0.3139024E+01
  0.2408554E+01  0.8541688E+00  0.3139065E+01
  0.2443461E+01  0.8646990E+00  0.3139107E+01
  0.2478368E+01  0.8750111E+00  0.3139142E+01
  0.2513274E+01  0.8851573E+00  0.3139178E+01
  0.2548181E+01  0.8953200E+00  0.3139213E+01
  0.2583087E+01  0.9051171E+00  0.3139240E+01
  0.2617994E+01  0.9150338E+00  0.3139276E+01
  0.2652900E+01  0.9243850E+00  0.3139306E+01
  0.2687807E+01  0.9337635E+00  0.3139337E+01
  0.2722714E+01  0.9429213E+00  0.3139362E+01
  0.2757620E+01  0.9516737E+00  0.3139391E+01
  0.2792527E+01  0.9601788E+00  0.3139416E+01
  0.2827433E+01  0.9686676E+00  0.3139439E+01
  0.2862340E+01  0.9767702E+00  0.3139463E+01
  0.2897247E+01  0.9849528E+00  0.3139481E+01
  0.2932153E+01  0.9924816E+00  0.3139506E+01
  0.2967060E+01  0.9992526E+00  0.3139524E+01
  0.3001966E+01  0.1006506E+01  0.3139544E+01
  0.3036873E+01  0.1012872E+01  0.3139560E+01
  0.3071780E+01  0.1020115E+01  0.3139579E+01
  0.3106686E+01  0.1023150E+01  0.3139587E+01
  0.3141593E+01  0.1031430E+01  0.3139607E+01
Zone t="Diffraction - beta =  30.000 at frequency  0.2000 rad/s",I=   181,F=POINT
 -0.3141593E+01  0.1378774E+01  0.3138054E+01
 -0.3106686E+01  0.1387530E+01  0.3138081E+01
 -0.3071780E+01  0.1392588E+01  0.3138100E+01
 -0.3036873E+01  0.1398974E+01  0.3138122E+01
 -0.3001966E+01  0.1405530E+01  0.3138140E+01
 -0.2967060E+01  0.1410768E+01  0.3138158E+01
 -0.2932153E+01  0.1415450E+01  0.3138173E+01
 -0.2897247E+01  0.1419673E+01  0.3138187E+01
 -0.2862340E+01  0.1423539E+01  0.3138199E+01
 -0.2827433E+01  0.1427040E+01  0.3138210E+01
 -0.2792527E+01  0.1430029E+01  0.3138220E+01
 -0.2757620E+01  0.1432270E+01  0.3138228E+01
 -0.2722714E+01  0.1434165E+01  0.3138233E+01
 -0.2687807E+01  0.1435634E+01  0.3138238E+01
 -0.2652900E+01  0.1436301E+01  0.3138240E+01
 -0.2617994E+01  0.1436654E+01  0.3138240E+01
 -0.2583087E+01  0.1436511E+01  0.3138240E+01
 -0.2548181E+01  0.1435453E+01  0.3138236E+01
 -0.2513274E+01  0.1434112E+01  0.3138232E+01
 -0.2478368E+01  0.1432654E+01  0.3138229E+01
 -0.2443461E+01  0.1429993E+01  0.3138220E+01
 -0.2408554E+01  0.1427146E+01  0.3138211E+01
 -0.2373648E+01  0.1423839E+01  0.3138201E+01
 -0.2338741E+01  0.1419968E+01  0.3138187E+01
 -0.2303835E+01  0.1415523E+01  0.3138173E+01
 -0.2268928E+01  0.1410648E+01  0.3138158E+01
 -0.2234021E+01  0.1405596E+01  0.3138141E+01
 -0.2199115E+01  0.1399370E+01  0.3138123E+01
 -0.2164208E+01  0.1393087E+01  0.3138098E+01
 -0.2129302E+01  0.1386557E+01  0.3138079E+01
 -0.2094395E+01  0.1379176E+01  0.3138054E+01
 -0.2059489E+01  0.1371350E+01  0.3138027E+01
 -0.2024582E+01  0.1363309E+01  0.3137999E+01
 -0.1989675E+01  0.1354566E+01  0.3137969E+01
 -0.1954769E+01  0.1345507E+01  0.3137937E+01
 -0.1919862E+01  0.1336180E+01  0.3137902E+01
 -0.1884956E+01  0.1326201E+01  0.3137867E+01
 -0.1850049E+01  0.1315834E+01  0.3137829E+01
 -0.1815143E+01  0.1305192E+01  0.3137789E+01
 -0.1780236E+01  0.1294368E+01  0.3137748E+01
 -0.1745329E+01  0.1283343E+01  0.3137703E+01
 -0.1710423E+01  0.1271775E+01  0.3137658E+01
 -0.1675516E+01  0.1259169E+01  0.3137609E+01
 -0.1640610E+01  0.1246663E+01  0.3137557E+01
 -0.1605703E+01  0.1236191E+01  0.3137513E+01
 -0.1570796E+01  0.1221526E+01  0.3137450E+01
 -0.1535890E+01  0.1207886E+01  0.3137393E+01
 -0.1500983E+01  0.1195047E+01  0.3137334E+01
 -0.1466077E+01  0.1181193E+01  0.3137269E+01
 -0.1431170E+01  0.1167377E+01  0.3137206E+01
 -0.1396263E+01  0.1153314E+01  0.3137140E+01
 -0.1361357E+01  0.1139316E+01  0.3137070E+01
 -0.1326450E+01  0.1124848E+01  0.3136998E+01
 -0.1291544E+01  0.1110290E+01  0.3136922E+01
 -0.1256637E+01  0.1095632E+01  0.3136845E+01
 -0.1221731E+01  0.1080831E+01  0.3136763E+01
 -0.1186824E+01  0.1065967E+01  0.3136684E+01
 -0.1151917E+01  0.1051041E+01  0.3136595E+01
 -0.1117011E+01  0.1036036E+01  0.3136507E+01
 -0.1082104E+01  0.1021069E+01  0.3136414E+01
 -0.1047198E+01  0.1005899E+01  0.3136320E+01
 -0.1012291E+01  0.9908477E+00  0.3136223E+01
 -0.9773844E+00  0.9758475E+00  0.3136124E+01
 -0.9424778E+00  0.9608731E+00  0.3136020E+01
 -0.9075713E+00  0.9458133E+00  0.3135911E+01
 -0.8726646E+00  0.9310049E+00  0.3135804E+01
 -0.8377581E+00  0.9162341E+00  0.3135695E+01
 -0.8028514E+00  0.9015065E+00  0.3135580E+01
 -0.7679449E+00  0.8869793E+00  0.3135463E+01
 -0.7330383E+00  0.8725772E+00  0.3135342E+01
 -0.6981317E+00  0.8583243E+00  0.3135221E+01
 -0.6632251E+00  0.8441622E+00  0.3135093E+01
 -0.6283185E+00  0.8303514E+00  0.3134970E+01
 -0.5934120E+00  0.8166933E+00  0.3134839E+01
 -0.5585054E+00  0.8031875E+00  0.3134704E+01
 -0.5235988E+00  0.7900583E+00  0.3134571E+01
 -0.4886922E+00  0.7770936E+00  0.3134436E+01
 -0.4537856E+00  0.7643971E+00  0.3134298E+01
 -0.4188790E+00  0.7520938E+00  0.3134161E+01
 -0.3839725E+00  0.7401211E+00  0.3134023E+01
 -0.3490659E+00  0.7283768E+00  0.3133886E+01
 -0.3141593E+00  0.7168797E+00  0.3133738E+01
 -0.2792527E+00  0.7059330E+00  0.3133602E+01
 -0.2443461E+00  0.6952878E+00  0.3133463E+01
 -0.2094395E+00  0.6847908E+00  0.3133321E+01
 -0.1745329E+00  0.6750152E+00  0.3133184E+01
 -0.1396263E+00  0.6654719E+00  0.3133046E+01