VARIABLES="w (rad/s)"
"abs(F   1   1)" "angle(F   1   1)"
"abs(F   1   2)" "angle(F   1   2)"
"abs(F   1   3)" "angle(F   1   3)"
"abs(F   1   4)" "angle(F   1   4)"
"abs(F   1   5)" "angle(F   1   5)"
"abs(F   1   6)" "angle(F   1   6)"
Zone t="Diffraction force - beta =  30.000",I=    40,F=POINT
  0.5000000E-01  0.9912843E+04 -0.3141424E+01  0.5723410E+04 -0.3141424E+01  0.1299075E+04  0.1816069E+01  0.4187459E+04  0.2979606E-03  0.7252720E+04 -0.3141295E+01  0.4381191E-02 -0.7675233E+00
  0.9999999E-01  0.1994365E+05 -0.3140912E+01  0.1151626E+05 -0.3140912E+01  0.4700468E+04  0.1841719E+01  0.8428685E+04  0.1199246E-02  0.1459756E+05 -0.3140393E+01  0.5721810E-01 -0.1571796E+01
  0.1500000E+00  0.3002221E+05 -0.3140035E+01  0.1733945E+05 -0.3140035E+01  0.9866542E+04  0.1860543E+01  0.1267852E+05  0.2742826E-02  0.2195513E+05 -0.3138849E+01  0.2971426E+00 -0.1520913E+01
  0.2000000E+00  0.4025229E+05 -0.3138756E+01  0.2325438E+05 -0.3138757E+01  0.1659746E+05  0.1875971E+01  0.1696766E+05  0.4992365E-02  0.2937746E+05 -0.3136599E+01  0.9621516E+00 -0.1551233E+01
  0.2500000E+00  0.5077678E+05 -0.3137025E+01  0.2934544E+05 -0.3137028E+01  0.2474323E+05  0.1889212E+01  0.2132460E+05  0.8039535E-02  0.3691211E+05 -0.3133551E+01  0.2423342E+01 -0.1573069E+01
  0.3000000E+00  0.6144700E+05 -0.3134760E+01  0.3552874E+05 -0.3134766E+01  0.3411967E+05  0.1901509E+01  0.2569253E+05  0.1203132E-01  0.4445894E+05 -0.3129556E+01  0.5200523E+01 -0.1568412E+01
  0.3500000E+00  0.7249545E+05 -0.3131862E+01  0.4194105E+05 -0.3131875E+01  0.4476823E+05  0.1912194E+01  0.3013249E+05  0.1714857E-01  0.5212130E+05 -0.3124433E+01  0.1000410E+02 -0.1567906E+01
  0.4000001E+00  0.8406532E+05 -0.3128206E+01  0.4866868E+05 -0.3128228E+01  0.5631579E+05  0.1922379E+01  0.3472761E+05  0.2359565E-01  0.6003879E+05 -0.3117978E+01  0.1792310E+02 -0.1571013E+01
  0.4499998E+00  0.9598391E+05 -0.3123584E+01  0.5561529E+05 -0.3123622E+01  0.6897361E+05  0.1932189E+01  0.3939283E+05  0.3174110E-01  0.6806112E+05 -0.3109820E+01  0.3023748E+02 -0.1569457E+01
  0.5000001E+00  0.1083086E+06 -0.3117785E+01  0.6281852E+05 -0.3117848E+01  0.8195576E+05  0.1942039E+01  0.4404099E+05  0.4204574E-01  0.7603262E+05 -0.3099489E+01  0.4880458E+02 -0.1571518E+01
  0.5500002E+00  0.1217711E+06 -0.3110501E+01  0.7071007E+05 -0.3110604E+01  0.9599269E+05  0.1951605E+01  0.4917193E+05  0.5483726E-01  0.8480544E+05 -0.3086653E+01  0.7669199E+02 -0.1570555E+01
  0.5999997E+00  0.1359336E+06 -0.3101447E+01  0.7904455E+05 -0.3101610E+01  0.1099409E+06  0.1961520E+01  0.5452426E+05  0.7067648E-01  0.9391902E+05 -0.3070743E+01  0.1174142E+03 -0.1570372E+01
  0.6500000E+00  0.1507151E+06 -0.3089871E+01  0.8778500E+05 -0.3090125E+01  0.1240548E+06  0.1970836E+01  0.5983936E+05  0.9107147E-01  0.1029147E+06 -0.3050229E+01  0.1755808E+03 -0.1570990E+01
  0.6999999E+00  0.1664987E+06 -0.3075221E+01  0.9716706E+05 -0.3075610E+01  0.1388839E+06  0.1982338E+01  0.6556234E+05  0.1166067E+00  0.1125442E+06 -0.3024505E+01  0.2582209E+03 -0.1570814E+01
  0.7500000E+00  0.1836958E+06 -0.3057321E+01  0.1074540E+06 -0.3057909E+01  0.1521299E+06  0.1991390E+01  0.7195010E+05  0.1476390E+00  0.1232125E+06 -0.2993169E+01  0.3769232E+03 -0.1570687E+01
  0.8000000E+00  0.2020862E+06 -0.3034611E+01  0.1185429E+06 -0.3035496E+01  0.1652363E+06  0.2000648E+01  0.7868161E+05  0.1866255E+00  0.1343320E+06 -0.2953680E+01  0.5444019E+03 -0.1570673E+01
  0.8500000E+00  0.2214888E+06 -0.3006031E+01  0.1303603E+06 -0.3007354E+01  0.1782589E+06  0.2014806E+01  0.8600681E+05  0.2345603E+00  0.1462943E+06 -0.2904961E+01  0.7790731E+03 -0.1570726E+01
  0.8999999E+00  0.2411783E+06 -0.2971507E+01  0.1425222E+06 -0.2973453E+01  0.1883336E+06  0.2023416E+01  0.9344691E+05  0.2929178E+00  0.1582308E+06 -0.2845398E+01  0.1105810E+04 -0.1570639E+01
  0.9499999E+00  0.2605306E+06 -0.2929292E+01  0.1547061E+06 -0.2932131E+01  0.1975587E+06  0.2032174E+01  0.1005616E+06  0.3645970E+00  0.1693329E+06 -0.2771840E+01  0.1554486E+04 -0.1570326E+01
  0.9999999E+00  0.2799925E+06 -0.2879135E+01  0.1672515E+06 -0.2883265E+01  0.2062516E+06  0.2047531E+01  0.1086193E+06  0.4469031E+00  0.1816481E+06 -0.2686682E+01  0.2180514E+04 -0.1570737E+01
  0.1050000E+01  0.2976439E+06 -0.2822803E+01  0.1790919E+06 -0.2828702E+01  0.2111294E+06  0.2055503E+01  0.1167200E+06  0.5392373E+00  0.1935989E+06 -0.2590187E+01  0.3037896E+04 -0.1571021E+01
  0.1100000E+01  0.3113467E+06 -0.2759799E+01  0.1890061E+06 -0.2768100E+01  0.2144526E+06  0.2062003E+01  0.1232018E+06  0.6440849E+00  0.2023629E+06 -0.2479234E+01  0.4182955E+04 -0.1570535E+01
  0.1150000E+01  0.3206970E+06 -0.2690558E+01  0.1968192E+06 -0.2702138E+01  0.2165433E+06  0.2073425E+01  0.1285361E+06  0.7599690E+00  0.2087210E+06 -0.2354535E+01  0.5710562E+04 -0.1570476E+01
  0.1200000E+01  0.3246742E+06 -0.2619663E+01  0.2019935E+06 -0.2635581E+01  0.2160710E+06  0.2084131E+01  0.1335160E+06  0.8763870E+00  0.2139803E+06 -0.2226222E+01  0.7740343E+04 -0.1571204E+01
  0.1250000E+01  0.3218094E+06 -0.2549529E+01  0.2036352E+06 -0.2570977E+01  0.2132444E+06  0.2089438E+01  0.1357927E+06  0.9983481E+00  0.2144352E+06 -0.2087795E+01  0.1035196E+05 -0.1570459E+01
  0.1300000E+01  0.3124309E+06 -0.2481274E+01  0.2019739E+06 -0.2509834E+01  0.2094970E+06  0.2092789E+01  0.1357589E+06  0.1122361E+01  0.2108765E+06 -0.1940918E+01  0.1370164E+05 -0.1570839E+01
  0.1350000E+01  0.2967381E+06 -0.2416461E+01  0.1971270E+06 -0.2453977E+01  0.2041710E+06  0.2103360E+01  0.1344498E+06  0.1240484E+01  0.2051873E+06 -0.1792958E+01  0.1795070E+05 -0.1570958E+01
  0.1400000E+01  0.2760792E+06 -0.2359508E+01  0.1899563E+06 -0.2407785E+01  0.1967909E+06  0.2107752E+01  0.1317917E+06  0.1352555E+01  0.1974876E+06 -0.1642341E+01  0.2330044E+05 -0.1569746E+01
  0.1450000E+01  0.2512068E+06 -0.2311544E+01  0.1809255E+06 -0.2372236E+01  0.1884772E+06  0.2109367E+01  0.1272664E+06  0.1459193E+01  0.1872623E+06 -0.1484672E+01  0.2990795E+05 -0.1570444E+01
  0.1500000E+01  0.2230775E+06 -0.2272793E+01  0.1706284E+06 -0.2347120E+01  0.1794532E+06  0.2108039E+01  0.1210385E+06  0.1561067E+01  0.1754015E+06 -0.1315538E+01  0.3798513E+05 -0.1569034E+01
  0.1550000E+01  0.1927169E+06 -0.2245983E+01  0.1598047E+06 -0.2333445E+01  0.1694671E+06  0.2110486E+01  0.1145922E+06  0.1649096E+01  0.1640204E+06 -0.1143484E+01  0.4791218E+05 -0.1569151E+01
  0.1600000E+01  0.1614682E+06 -0.2236260E+01  0.1493287E+06 -0.2332110E+01  0.1586359E+06  0.2112875E+01  0.1076828E+06  0.1722851E+01  0.1530961E+06 -0.9649864E+00  0.5994299E+05 -0.1567129E+01
  0.1650000E+01  0.1302300E+06 -0.2249381E+01  0.1396934E+06 -0.2340232E+01  0.1474870E+06  0.2114056E+01  0.1003066E+06  0.1788461E+01  0.1433502E+06 -0.7703107E+00  0.7443134E+05 -0.1565255E+01
  0.1700000E+01  0.9945609E+05 -0.2298856E+01  0.1308486E+06 -0.2354698E+01  0.1360788E+06  0.2109279E+01  0.9268376E+05  0.1841482E+01  0.1355721E+06 -0.5607629E+00  0.9155919E+05 -0.1561566E+01
  0.1750000E+01  0.7086077E+05 -0.2420143E+01  0.1233847E+06 -0.2370768E+01  0.1244324E+06  0.2100950E+01  0.8523555E+05  0.1886972E+01  0.1310250E+06 -0.3375238E+00  0.1122815E+06 -0.1556397E+01
  0.1800000E+01  0.4657957E+05 -0.2710209E+01  0.1166995E+06 -0.2382859E+01  0.1128221E+06  0.2095587E+01  0.7903427E+05  0.1911072E+01  0.1292503E+06 -0.1230168E+00  0.1365868E+06 -0.1549002E+01
  0.1850000E+01  0.3413922E+05  0.2938305E+01  0.1107438E+06 -0.2384728E+01  0.1018716E+06  0.2097170E+01  0.7376522E+05  0.1928453E+01  0.1306601E+06  0.8574899E-01  0.1661170E+06 -0.1537749E+01
  0.1900000E+01  0.4117800E+05  0.2254796E+01  0.1045304E+06 -0.2370872E+01  0.9110776E+05  0.2090162E+01  0.6918040E+05  0.1949671E+01  0.1352460E+06  0.2826374E+00  0.2005165E+06 -0.1522584E+01
  0.1950000E+01  0.5888455E+05  0.1910965E+01  0.9708248E+05 -0.2341110E+01  0.8093173E+05  0.2088130E+01  0.6519807E+05  0.1979951E+01  0.1426682E+06  0.4604080E+00  0.2410343E+06 -0.1500538E+01
  0.2000000E+01  0.7865243E+05  0.1754009E+01  0.8829485E+05 -0.2295921E+01  0.6988048E+05  0.2065690E+01  0.6126299E+05  0.2031012E+01  0.1522295E+06  0.6160343E+00  0.2887849E+06 -0.1470236E+01
