VARIABLES="Theta (rad)" "ABS(HKochin)" "ANGLE(HKochin)"
Zone t="Diffraction - beta =  30.000 at frequency  0.0500 rad/s",I=   181,F=POINT
 -0.3141593E+01  0.3434750E+00  0.3141360E+01
 -0.3106686E+01  0.3444438E+00  0.3141361E+01
 -0.3071780E+01  0.3490996E+00  0.3141359E+01
 -0.3036873E+01  0.3471811E+00  0.3141357E+01
 -0.3001966E+01  0.3460883E+00  0.3141363E+01
 -0.2967060E+01  0.3472973E+00  0.3141358E+01
 -0.2932153E+01  0.3538815E+00  0.3141357E+01
 -0.2897247E+01  0.3546042E+00  0.3141373E+01
 -0.2862340E+01  0.3522320E+00  0.3141368E+01
 -0.2827433E+01  0.3540888E+00  0.3141365E+01
 -0.2792527E+01  0.3546235E+00  0.3141366E+01
 -0.2757620E+01  0.3549476E+00  0.3141376E+01
 -0.2722714E+01  0.3548857E+00  0.3141366E+01
 -0.2687807E+01  0.3553323E+00  0.3141368E+01
 -0.2652900E+01  0.3546287E+00  0.3141373E+01
 -0.2617994E+01  0.3560726E+00  0.3141375E+01
 -0.2583087E+01  0.3567710E+00  0.3141369E+01
 -0.2548181E+01  0.3554016E+00  0.3141369E+01
 -0.2513274E+01  0.3561360E+00  0.3141372E+01
 -0.2478368E+01  0.3544836E+00  0.3141364E+01
 -0.2443461E+01  0.3563443E+00  0.3141368E+01
 -0.2408554E+01  0.3532681E+00  0.3141373E+01
 -0.2373648E+01  0.3535655E+00  0.3141370E+01
 -0.2338741E+01  0.3526160E+00  0.3141375E+01
 -0.2303835E+01  0.3504660E+00  0.3141371E+01
 -0.2268928E+01  0.3516703E+00  0.3141365E+01
 -0.2234021E+01  0.3477714E+00  0.3141362E+01
 -0.2199115E+01  0.3474834E+00  0.3141365E+01
 -0.2164208E+01  0.3449923E+00  0.3141364E+01
 -0.2129302E+01  0.3442615E+00  0.3141367E+01
 -0.2094395E+01  0.3419778E+00  0.3141359E+01
 -0.2059489E+01  0.3387268E+00  0.3141365E+01
 -0.2024582E+01  0.3377559E+00  0.3141355E+01
 -0.1989675E+01  0.3354872E+00  0.3141356E+01
 -0.1954769E+01  0.3342192E+00  0.3141356E+01
 -0.1919862E+01  0.3318511E+00  0.3141350E+01
 -0.1884956E+01  0.3289267E+00  0.3141331E+01
 -0.1850049E+01  0.3262480E+00  0.3141345E+01
 -0.1815143E+01  0.3269641E+00  0.3141345E+01
 -0.1780236E+01  0.3241366E+00  0.3141331E+01
 -0.1745329E+01  0.3171125E+00  0.3141335E+01
 -0.1710423E+01  0.3159055E+00  0.3141332E+01
 -0.1675516E+01  0.3140932E+00  0.3141323E+01
 -0.1640610E+01  0.3131901E+00  0.3141318E+01
 -0.1605703E+01  0.3075912E+00  0.3141325E+01
 -0.1570796E+01  0.3050570E+00  0.3141296E+01
 -0.1535890E+01  0.3016503E+00  0.3141320E+01
 -0.1500983E+01  0.2987108E+00  0.3141304E+01
 -0.1466077E+01  0.2931157E+00  0.3141302E+01
 -0.1431170E+01  0.2878307E+00  0.3141295E+01
 -0.1396263E+01  0.2875240E+00  0.3141300E+01
 -0.1361357E+01  0.2848950E+00  0.3141299E+01
 -0.1326450E+01  0.2803909E+00  0.3141295E+01
 -0.1291544E+01  0.2778003E+00  0.3141294E+01
 -0.1256637E+01  0.2755980E+00  0.3141296E+01
 -0.1221731E+01  0.2707480E+00  0.3141298E+01
 -0.1186824E+01  0.2666027E+00  0.3141265E+01
 -0.1151917E+01  0.2639952E+00  0.3141265E+01
 -0.1117011E+01  0.2602264E+00  0.3141276E+01
 -0.1082104E+01  0.2570279E+00  0.3141262E+01
 -0.1047198E+01  0.2529799E+00  0.3141268E+01
 -0.1012291E+01  0.2496146E+00  0.3141237E+01
 -0.9773844E+00  0.2458322E+00  0.3141254E+01
 -0.9424778E+00  0.2421164E+00  0.3141222E+01
 -0.9075713E+00  0.2386393E+00  0.3141223E+01
 -0.8726646E+00  0.2341325E+00  0.3141233E+01
 -0.8377581E+00  0.2311710E+00  0.3141222E+01
 -0.8028514E+00  0.2273990E+00  0.3141220E+01
 -0.7679449E+00  0.2238551E+00  0.3141214E+01
 -0.7330383E+00  0.2206967E+00  0.3141207E+01
 -0.6981317E+00  0.2167002E+00  0.3141185E+01
 -0.6632251E+00  0.2135998E+00  0.3141190E+01
 -0.6283185E+00  0.2098808E+00  0.3141180E+01
 -0.5934120E+00  0.2069591E+00  0.3141170E+01
 -0.5585054E+00  0.2029357E+00  0.3141143E+01
 -0.5235988E+00  0.2004053E+00  0.3141151E+01
 -0.4886922E+00  0.1976517E+00  0.3141132E+01
 -0.4537856E+00  0.1946165E+00  0.3141138E+01
 -0.4188790E+00  0.1915759E+00  0.3141126E+01
 -0.3839725E+00  0.1892163E+00  0.3141119E+01
 -0.3490659E+00  0.1857440E+00  0.3141081E+01
 -0.3141593E+00  0.1816160E+00  0.3141093E+01
 -0.2792527E+00  0.1807752E+00  0.3141094E+01
 -0.2443461E+00  0.1773258E+00  0.3141075E+01
 -0.2094395E+00  0.1738108E+00  0.3141065E+01
 -0.1745329E+00  0.1748854E+00  0.3141065E+01
 -0.1396263E+00  0.1751621E+00  0.3141081E+01
 -0.1047198E+00  0.1695640E+00  0.3141062E+01
 -0.6981317E-01  0.1644753E+00  0.3141040E+01
 -0.3490658E-01  0.1640751E+00  0.3141027E+01
  0.0000000E+00  0.1616013E+00  0.3141015E+01
  0.3490658E-01  0.1606511E+00  0.3141034E+01
  0.6981317E-01  0.1561446E+00  0.3140994E+01
  0.1047198E+00  0.1575023E+00  0.3141009E+01
  0.1396263E+00  0.1589656E+00  0.3141018E+01
  0.1745329E+00  0.1578052E+00  0.3141011E+01
  0.2094395E+00  0.1511602E+00  0.3140953E+01
  0.2443461E+00  0.1504372E+00  0.3140993E+01
  0.2792527E+00  0.1528284E+00  0.3140987E+01
  0.3141593E+00  0.1508238E+00  0.3140983E+01
  0.3490659E+00  0.1504476E+00  0.3140963E+01
  0.3839725E+00  0.1501550E+00  0.3140960E+01
  0.4188790E+00  0.1503271E+00  0.3140968E+01
  0.4537856E+00  0.1498481E+00  0.3140966E+01
  0.4886922E+00  0.1504838E+00  0.3140961E+01
  0.5235988E+00  0.1490430E+00  0.3140963E+01
  0.5585054E+00  0.1482786E+00  0.3140978E+01
  0.5934120E+00  0.1496837E+00  0.3140964E+01
  0.6283185E+00  0.1490501E+00  0.3140976E+01
  0.6632251E+00  0.1505701E+00  0.3140977E+01
  0.6981317E+00  0.1488146E+00  0.3140963E+01
  0.7330383E+00  0.1517909E+00  0.3140988E+01
  0.7679449E+00  0.1515476E+00  0.3140990E+01
  0.8028514E+00  0.1524847E+00  0.3140983E+01
  0.8377581E+00  0.1546270E+00  0.3140987E+01
  0.8726646E+00  0.1534846E+00  0.3140970E+01
  0.9075713E+00  0.1572714E+00  0.3140990E+01
  0.9424778E+00  0.1576828E+00  0.3141008E+01
  0.9773844E+00  0.1600994E+00  0.3141028E+01
  0.1012291E+01  0.1607694E+00  0.3141018E+01
  0.1047198E+01  0.1630995E+00  0.3141060E+01
  0.1082104E+01  0.1663772E+00  0.3141034E+01
  0.1117011E+01  0.1674273E+00  0.3141053E+01
  0.1151917E+01  0.1697246E+00  0.3141060E+01
  0.1186824E+01  0.1709044E+00  0.3141040E+01
  0.1221731E+01  0.1732420E+00  0.3141084E+01
  0.1256637E+01  0.1760232E+00  0.3141087E+01
  0.1291544E+01  0.1788500E+00  0.3141084E+01
  0.1326450E+01  0.1780476E+00  0.3141102E+01
  0.1361357E+01  0.1809451E+00  0.3141083E+01
  0.1396263E+01  0.1879540E+00  0.3141098E+01
  0.1431170E+01  0.1891323E+00  0.3141102E+01
  0.1466077E+01  0.1906809E+00  0.3141118E+01
  0.1500983E+01  0.1921398E+00  0.3141111E+01
  0.1535890E+01  0.1975138E+00  0.3141139E+01
  0.1570796E+01  0.2000494E+00  0.3141094E+01
  0.1605703E+01  0.2034571E+00  0.3141152E+01
  0.1640610E+01  0.2065141E+00  0.3141129E+01
  0.1675516E+01  0.2115616E+00  0.3141163E+01
  0.1710423E+01  0.2172152E+00  0.3141183E+01
  0.1745329E+01  0.2175711E+00  0.3141181E+01
  0.1780236E+01  0.2201669E+00  0.3141193E+01
  0.1815143E+01  0.2246129E+00  0.3141200E+01
  0.1850049E+01  0.2272639E+00  0.3141207E+01
  0.1884956E+01  0.2293611E+00  0.3141208E+01
  0.1919862E+01  0.2343356E+00  0.3141224E+01
  0.1954769E+01  0.2385407E+00  0.3141233E+01
  0.1989675E+01  0.2411798E+00  0.3141236E+01
  0.2024582E+01  0.2449695E+00  0.3141233E+01
  0.2059489E+01  0.2480921E+00  0.3141248E+01
  0.2094395E+01  0.2521013E+00  0.3141249E+01
  0.2129302E+01  0.2554390E+00  0.3141256E+01
  0.2164208E+01  0.2592930E+00  0.3141273E+01
  0.2199115E+01  0.2630436E+00  0.3141274E+01
  0.2234021E+01  0.2664226E+00  0.3141269E+01
  0.2268928E+01  0.2710509E+00  0.3141283E+01
  0.2303835E+01  0.2739172E+00  0.3141284E+01
  0.2338741E+01  0.2777323E+00  0.3141295E+01
  0.2373648E+01  0.2812717E+00  0.3141294E+01
  0.2408554E+01  0.2844035E+00  0.3141304E+01
  0.2443461E+01  0.2884929E+00  0.3141306E+01
  0.2478368E+01  0.2914816E+00  0.3141308E+01
  0.2513274E+01  0.2953024E+00  0.3141323E+01
  0.2548181E+01  0.2981570E+00  0.3141319E+01
  0.2583087E+01  0.3021364E+00  0.3141314E+01
  0.2617994E+01  0.3046931E+00  0.3141319E+01
  0.2652900E+01  0.3074813E+00  0.3141324E+01
  0.2687807E+01  0.3105631E+00  0.3141333E+01
  0.2722714E+01  0.3136185E+00  0.3141324E+01
  0.2757620E+01  0.3159039E+00  0.3141342E+01
  0.2792527E+01  0.3193456E+00  0.3141348E+01
  0.2827433E+01  0.3233059E+00  0.3141347E+01
  0.2862340E+01  0.3242619E+00  0.3141340E+01
  0.2897247E+01  0.3276886E+00  0.3141339E+01
  0.2932153E+01  0.3312364E+00  0.3141346E+01
  0.2967060E+01  0.3301857E+00  0.3141341E+01
  0.3001966E+01  0.3298769E+00  0.3141355E+01
  0.3036873E+01  0.3350483E+00  0.3141354E+01
  0.3071780E+01  0.3408179E+00  0.3141355E+01
  0.3106686E+01  0.3410157E+00  0.3141370E+01
  0.3141593E+01  0.3435135E+00  0.3141355E+01
Zone t="Diffraction - beta =  30.000 at frequency  0.1000 rad/s",I=   181,F=POINT
 -0.3141593E+01  0.6864769E+00  0.3140707E+01
 -0.3106686E+01  0.6911391E+00  0.3140718E+01
 -0.3071780E+01  0.6915343E+00  0.3140716E+01
 -0.3036873E+01  0.6977098E+00  0.3140723E+01
 -0.3001966E+01  0.7009999E+00  0.3140733E+01
 -0.2967060E+01  0.7007724E+00  0.3140730E+01
 -0.2932153E+01  0.7052865E+00  0.3140737E+01
 -0.2897247E+01  0.7062592E+00  0.3140738E+01
 -0.2862340E+01  0.7086102E+00  0.3140742E+01
 -0.2827433E+01  0.7099688E+00  0.3140745E+01
 -0.2792527E+01  0.7120175E+00  0.3140746E+01
 -0.2757620E+01  0.7125563E+00  0.3140749E+01
 -0.2722714E+01  0.7134520E+00  0.3140751E+01
 -0.2687807E+01  0.7148189E+00  0.3140754E+01
 -0.2652900E+01  0.7144425E+00  0.3140754E+01
 -0.2617994E+01  0.7142206E+00  0.3140754E+01
 -0.2583087E+01  0.7146488E+00  0.3140753E+01
 -0.2548181E+01  0.7143153E+00  0.3140750E+01
 -0.2513274E+01  0.7136388E+00  0.3140753E+01
 -0.2478368E+01  0.7125751E+00  0.3140749E+01
 -0.2443461E+01  0.7118822E+00  0.3140749E+01
 -0.2408554E+01  0.7104906E+00  0.3140747E+01
 -0.2373648E+01  0.7083776E+00  0.3140741E+01
 -0.2338741E+01  0.7065153E+00  0.3140739E+01
 -0.2303835E+01  0.7047481E+00  0.3140737E+01
 -0.2268928E+01  0.7024248E+00  0.3140732E+01
 -0.2234021E+01  0.6993663E+00  0.3140728E+01
 -0.2199115E+01  0.6966242E+00  0.3140728E+01
 -0.2164208E+01  0.6936089E+00  0.3140724E+01
 -0.2129302E+01  0.6902087E+00  0.3140711E+01
 -0.2094395E+01  0.6861088E+00  0.3140706E+01
 -0.2059489E+01  0.6827570E+00  0.3140701E+01
 -0.2024582E+01  0.6793887E+00  0.3140692E+01
 -0.1989675E+01  0.6745405E+00  0.3140687E+01
 -0.1954769E+01  0.6700220E+00  0.3140680E+01
 -0.1919862E+01  0.6658358E+00  0.3140669E+01
 -0.1884956E+01  0.6606369E+00  0.3140661E+01
 -0.1850049E+01  0.6557708E+00  0.3140651E+01
 -0.1815143E+01  0.6500866E+00  0.3140641E+01
 -0.1780236E+01  0.6456959E+00  0.3140635E+01
 -0.1745329E+01  0.6386490E+00  0.3140621E+01
 -0.1710423E+01  0.6349478E+00  0.3140609E+01
 -0.1675516E+01  0.6285589E+00  0.3140604E+01
 -0.1640610E+01  0.6214777E+00  0.3140586E+01
 -0.1605703E+01  0.6181324E+00  0.3140581E+01
 -0.1570796E+01  0.6096197E+00  0.3140573E+01
 -0.1535890E+01  0.6001955E+00  0.3140540E+01
 -0.1500983E+01  0.5947497E+00  0.3140528E+01
 -0.1466077E+01  0.5910463E+00  0.3140522E+01
 -0.1431170E+01  0.5839574E+00  0.3140505E+01
 -0.1396263E+01  0.5764161E+00  0.3140485E+01
 -0.1361357E+01  0.5699592E+00  0.3140468E+01
 -0.1326450E+01  0.5628291E+00  0.3140454E+01
 -0.1291544E+01  0.5555925E+00  0.3140431E+01
 -0.1256637E+01  0.5482094E+00  0.3140416E+01
 -0.1221731E+01  0.5413333E+00  0.3140397E+01
 -0.1186824E+01  0.5339116E+00  0.3140377E+01
 -0.1151917E+01  0.5263869E+00  0.3140359E+01
 -0.1117011E+01  0.5191176E+00  0.3140330E+01
 -0.1082104E+01  0.5117087E+00  0.3140311E+01
 -0.1047198E+01  0.5046037E+00  0.3140288E+01
 -0.1012291E+01  0.4971423E+00  0.3140266E+01
 -0.9773844E+00  0.4897500E+00  0.3140245E+01
 -0.9424778E+00  0.4825425E+00  0.3140220E+01
 -0.9075713E+00  0.4752249E+00  0.3140190E+01
 -0.8726646E+00  0.4678641E+00  0.3140164E+01
 -0.8377581E+00  0.4608006E+00  0.3140143E+01
 -0.8028514E+00  0.4536117E+00  0.3140111E+01
 -0.7679449E+00  0.4466512E+00  0.3140085E+01
 -0.7330383E+00  0.4393422E+00  0.3140054E+01
 -0.6981317E+00  0.4324922E+00  0.3140029E+01
 -0.6632251E+00  0.4258398E+00  0.3139994E+01
 -0.6283185E+00  0.4189643E+00  0.3139972E+01
 -0.5934120E+00  0.4123486E+00  0.3139934E+01
 -0.5585054E+00  0.4057566E+00  0.3139906E+01
 -0.5235988E+00  0.3995014E+00  0.3139877E+01
 -0.4886922E+00  0.3932665E+00  0.3139848E+01
 -0.4537856E+00  0.3866760E+00  0.3139811E+01
 -0.4188790E+00  0.3809631E+00  0.3139775E+01
 -0.3839725E+00  0.3749340E+00  0.3139742E+01
 -0.3490659E+00  0.3687540E+00  0.3139710E+01
 -0.3141593E+00  0.3639129E+00  0.3139676E+01
 -0.2792527E+00  0.3581452E+00  0.3139649E+01
 -0.2443461E+00  0.3529785E+00  0.3139623E+01
 -0.2094395E+00  0.3473049E+00  0.3139571E+01
 -0.1745329E+00  0.3442049E+00  0.3139557E+01
 -0.1396263E+00  0.3372040E+00  0.3139508E+01
 -0.1047198E+00  0.3327302E+00  0.3139485E+01
 -0.6981317E-01  0.3326587E+00  0.3139472E+01
 -0.3490658E-01  0.3278293E+00  0.3139449E+01
  0.0000000E+00  0.3223930E+00  0.3139414E+01
  0.3490658E-01  0.3174696E+00  0.3139365E+01
  0.6981317E-01  0.3172830E+00  0.3139369E+01
  0.1047198E+00  0.3109386E+00  0.3139305E+01
  0.1396263E+00  0.3077358E+00  0.3139276E+01
  0.1745329E+00  0.3082602E+00  0.3139290E+01
  0.2094395E+00  0.3035157E+00  0.3139248E+01
  0.2443461E+00  0.3025549E+00  0.3139241E+01
  0.2792527E+00  0.3002540E+00  0.3139215E+01
  0.3141593E+00  0.2989186E+00  0.3139208E+01
  0.3490659E+00  0.2968100E+00  0.3139190E+01
  0.3839725E+00  0.2962764E+00  0.3139188E+01
  0.4188790E+00  0.2953294E+00  0.3139172E+01
  0.4537856E+00  0.2940442E+00  0.3139158E+01
  0.4886922E+00  0.2944257E+00  0.3139163E+01
  0.5235988E+00  0.2946193E+00  0.3139167E+01
  0.5585054E+00  0.2941905E+00  0.3139157E+01
  0.5934120E+00  0.2945615E+00  0.3139162E+01
  0.6283185E+00  0.2952598E+00  0.3139174E+01
  0.6632251E+00  0.2963201E+00  0.3139182E+01
  0.6981317E+00  0.2969434E+00  0.3139201E+01
  0.7330383E+00  0.2983896E+00  0.3139196E+01
  0.7679449E+00  0.3005152E+00  0.3139227E+01
  0.8028514E+00  0.3023910E+00  0.3139241E+01
  0.8377581E+00  0.3041391E+00  0.3139243E+01
  0.8726646E+00  0.3064342E+00  0.3139272E+01
  0.9075713E+00  0.3095675E+00  0.3139297E+01
  0.9424778E+00  0.3123064E+00  0.3139320E+01
  0.9773844E+00  0.3153151E+00  0.3139343E+01
  0.1012291E+01  0.3187049E+00  0.3139367E+01
  0.1047198E+01  0.3228018E+00  0.3139405E+01
  0.1082104E+01  0.3261846E+00  0.3139432E+01
  0.1117011E+01  0.3295522E+00  0.3139459E+01
  0.1151917E+01  0.3343217E+00  0.3139489E+01
  0.1186824E+01  0.3389053E+00  0.3139524E+01
  0.1221731E+01  0.3430850E+00  0.3139549E+01
  0.1256637E+01  0.3483296E+00  0.3139590E+01
  0.1291544E+01  0.3531979E+00  0.3139614E+01
  0.1326450E+01  0.3588405E+00  0.3139655E+01
  0.1361357E+01  0.3632171E+00  0.3139685E+01
  0.1396263E+01  0.3705125E+00  0.3139719E+01
  0.1431170E+01  0.3738758E+00  0.3139743E+01
  0.1466077E+01  0.3802567E+00  0.3139774E+01
  0.1500983E+01  0.3875608E+00  0.3139817E+01
  0.1535890E+01  0.3904860E+00  0.3139831E+01
  0.1570796E+01  0.3993950E+00  0.3139888E+01
  0.1605703E+01  0.4083188E+00  0.3139922E+01
  0.1640610E+01  0.4142416E+00  0.3139951E+01
  0.1675516E+01  0.4178040E+00  0.3139972E+01
  0.1710423E+01  0.4248954E+00  0.3139987E+01
  0.1745329E+01  0.4327953E+00  0.3140025E+01
  0.1780236E+01  0.4390205E+00  0.3140059E+01
  0.1815143E+01  0.4461336E+00  0.3140085E+01
  0.1850049E+01  0.4534310E+00  0.3140109E+01
  0.1884956E+01  0.4608580E+00  0.3140139E+01
  0.1919862E+01  0.4676626E+00  0.3140163E+01
  0.1954769E+01  0.4751041E+00  0.3140192E+01
  0.1989675E+01  0.4825908E+00  0.3140220E+01
  0.2024582E+01  0.4899472E+00  0.3140243E+01
  0.2059489E+01  0.4973333E+00  0.3140265E+01
  0.2094395E+01  0.5044407E+00  0.3140293E+01
  0.2129302E+01  0.5118871E+00  0.3140309E+01
  0.2164208E+01  0.5192716E+00  0.3140332E+01
  0.2199115E+01  0.5265134E+00  0.3140358E+01
  0.2234021E+01  0.5338401E+00  0.3140377E+01
  0.2268928E+01  0.5411384E+00  0.3140398E+01
  0.2303835E+01  0.5482221E+00  0.3140413E+01
  0.2338741E+01  0.5554278E+00  0.3140430E+01
  0.2373648E+01  0.5623859E+00  0.3140451E+01
  0.2408554E+01  0.5696660E+00  0.3140469E+01
  0.2443461E+01  0.5764833E+00  0.3140486E+01
  0.2478368E+01  0.5831863E+00  0.3140500E+01
  0.2513274E+01  0.5900618E+00  0.3140516E+01
  0.2548181E+01  0.5966354E+00  0.3140533E+01
  0.2583087E+01  0.6031951E+00  0.3140547E+01
  0.2617994E+01  0.6094542E+00  0.3140557E+01
  0.2652900E+01  0.6157054E+00  0.3140575E+01
  0.2687807E+01  0.6222975E+00  0.3140585E+01
  0.2722714E+01  0.6279376E+00  0.3140606E+01
  0.2757620E+01  0.6339902E+00  0.3140614E+01
  0.2792527E+01  0.6401396E+00  0.3140620E+01
  0.2827433E+01  0.6450671E+00  0.3140629E+01
  0.2862340E+01  0.6507740E+00  0.3140644E+01
  0.2897247E+01  0.6559200E+00  0.3140652E+01
  0.2932153E+01  0.6615727E+00  0.3140664E+01
  0.2967060E+01  0.6648417E+00  0.3140668E+01
  0.3001966E+01  0.6715767E+00  0.3140682E+01
  0.3036873E+01  0.6760485E+00  0.3140692E+01
  0.3071780E+01  0.6761761E+00  0.3140685E+01
  0.3106686E+01  0.6807759E+00  0.3140699E+01
  0.3141593E+01  0.6864962E+00  0.3140705E+01
Zone t="Diffraction - beta =  30.000 at frequency  0.1500 rad/s",I=   181,F=POINT
 -0.3141593E+01  0.1031504E+01  0.3139606E+01
 -0.3106686E+01  0.1035956E+01  0.3139618E+01
 -0.3071780E+01  0.1042629E+01  0.3139633E+01
 -0.3036873E+01  0.1046779E+01  0.3139644E+01
 -0.3001966E+01  0.1051325E+01  0.3139652E+01
 -0.2967060E+01  0.1054838E+01  0.3139664E+01
 -0.2932153E+01  0.1058388E+01  0.3139673E+01
 -0.2897247E+01  0.1062014E+01  0.3139681E+01
 -0.2862340E+01  0.1065219E+01  0.3139689E+01
 -0.2827433E+01  0.1067476E+01  0.3139694E+01
 -0.2792527E+01  0.1069577E+01  0.3139699E+01
 -0.2757620E+01  0.1070833E+01  0.3139700E+01
 -0.2722714E+01  0.1071924E+01  0.3139704E+01
 -0.2687807E+01  0.1073385E+01  0.3139708E+01
 -0.2652900E+01  0.1073948E+01  0.3139710E+01
 -0.2617994E+01  0.1074099E+01  0.3139712E+01
 -0.2583087E+01  0.1074012E+01  0.3139708E+01
 -0.2548181E+01  0.1073500E+01  0.3139708E+01
 -0.2513274E+01  0.1072675E+01  0.3139706E+01
 -0.2478368E+01  0.1071186E+01  0.3139700E+01
 -0.2443461E+01  0.1069619E+01  0.3139699E+01
 -0.2408554E+01  0.1067213E+01  0.3139692E+01
 -0.2373648E+01  0.1064727E+01  0.3139687E+01
 -0.2338741E+01  0.1061846E+01  0.3139682E+01
 -0.2303835E+01  0.1058630E+01  0.3139673E+01
 -0.2268928E+01  0.1055294E+01  0.3139666E+01
 -0.2234021E+01  0.1051141E+01  0.3139654E+01
 -0.2199115E+01  0.1046927E+01  0.3139645E+01
 -0.2164208E+01  0.1042129E+01  0.3139632E+01
 -0.2129302E+01  0.1036982E+01  0.3139619E+01
 -0.2094395E+01  0.1031541E+01  0.3139608E+01
 -0.2059489E+01  0.1025865E+01  0.3139591E+01
 -0.2024582E+01  0.1019815E+01  0.3139576E+01
 -0.1989675E+01  0.1012993E+01  0.3139559E+01
 -0.1954769E+01  0.1006572E+01  0.3139543E+01
 -0.1919862E+01  0.1000017E+01  0.3139524E+01
 -0.1884956E+01  0.9926596E+00  0.3139503E+01
 -0.1850049E+01  0.9853228E+00  0.3139484E+01
 -0.1815143E+01  0.9772332E+00  0.3139462E+01
 -0.1780236E+01  0.9688484E+00  0.3139438E+01
 -0.1745329E+01  0.9604340E+00  0.3139415E+01
 -0.1710423E+01  0.9521833E+00  0.3139387E+01
 -0.1675516E+01  0.9429889E+00  0.3139360E+01
 -0.1640610E+01  0.9346550E+00  0.3139336E+01
 -0.1605703E+01  0.9237894E+00  0.3139300E+01
 -0.1570796E+01  0.9150571E+00  0.3139277E+01
 -0.1535890E+01  0.9051865E+00  0.3139243E+01
 -0.1500983E+01  0.8955215E+00  0.3139212E+01
 -0.1466077E+01  0.8857824E+00  0.3139174E+01
 -0.1431170E+01  0.8751290E+00  0.3139139E+01
 -0.1396263E+01  0.8646536E+00  0.3139103E+01
 -0.1361357E+01  0.8540564E+00  0.3139063E+01
 -0.1326450E+01  0.8435170E+00  0.3139022E+01
 -0.1291544E+01  0.8329311E+00  0.3138982E+01
 -0.1256637E+01  0.8221108E+00  0.3138944E+01
 -0.1221731E+01  0.8110461E+00  0.3138899E+01
 -0.1186824E+01  0.8000364E+00  0.3138851E+01
 -0.1151917E+01  0.7890525E+00  0.3138800E+01
 -0.1117011E+01  0.7779012E+00  0.3138755E+01
 -0.1082104E+01  0.7667705E+00  0.3138706E+01
 -0.1047198E+01  0.7556410E+00  0.3138655E+01
 -0.1012291E+01  0.7446157E+00  0.3138602E+01
 -0.9773844E+00  0.7333555E+00  0.3138546E+01
 -0.9424778E+00  0.7223158E+00  0.3138493E+01
 -0.9075713E+00  0.7112836E+00  0.3138431E+01
 -0.8726646E+00  0.7002056E+00  0.3138370E+01
 -0.8377581E+00  0.6893103E+00  0.3138313E+01
 -0.8028514E+00  0.6785676E+00  0.3138249E+01
 -0.7679449E+00  0.6677611E+00  0.3138183E+01
 -0.7330383E+00  0.6571673E+00  0.3138122E+01
 -0.6981317E+00  0.6465410E+00  0.3138057E+01
 -0.6632251E+00  0.6361864E+00  0.3137981E+01
 -0.6283185E+00  0.6258772E+00  0.3137916E+01
 -0.5934120E+00  0.6158654E+00  0.3137847E+01
 -0.5585054E+00  0.6059044E+00  0.3137774E+01
 -0.5235988E+00  0.5962239E+00  0.3137702E+01
 -0.4886922E+00  0.5866868E+00  0.3137632E+01
 -0.4537856E+00  0.5772911E+00  0.3137556E+01
 -0.4188790E+00  0.5683428E+00  0.3137479E+01
 -0.3839725E+00  0.5593871E+00  0.3137408E+01
 -0.3490659E+00  0.5505669E+00  0.3137328E+01
 -0.3141593E+00  0.5419284E+00  0.3137252E+01
 -0.2792527E+00  0.5337703E+00  0.3137171E+01
 -0.2443461E+00  0.5260366E+00  0.3137097E+01
 -0.2094395E+00  0.5188151E+00  0.3137029E+01
 -0.1745329E+00  0.5113249E+00  0.3136960E+01
 -0.1396263E+00  0.5039875E+00  0.3136881E+01
 -0.1047198E+00  0.4972058E+00  0.3136808E+01
 -0.6981317E-01  0.4909858E+00  0.3136733E+01
 -0.3490658E-01  0.4857717E+00  0.3136679E+01
  0.0000000E+00  0.4792981E+00  0.3136606E+01
  0.3490658E-01  0.4748858E+00  0.3136553E+01
  0.6981317E-01  0.4684869E+00  0.3136473E+01
  0.1047198E+00  0.4644354E+00  0.3136425E+01
  0.1396263E+00  0.4593837E+00  0.3136357E+01
  0.1745329E+00  0.4559166E+00  0.3136319E+01
  0.2094395E+00  0.4523889E+00  0.3136269E+01
  0.2443461E+00  0.4486526E+00  0.3136220E+01
  0.2792527E+00  0.4455736E+00  0.3136178E+01
  0.3141593E+00  0.4432696E+00  0.3136149E+01
  0.3490659E+00  0.4412324E+00  0.3136121E+01
  0.3839725E+00  0.4398818E+00  0.3136096E+01
  0.4188790E+00  0.4387683E+00  0.3136084E+01
  0.4537856E+00  0.4373195E+00  0.3136070E+01
  0.4886922E+00  0.4367766E+00  0.3136059E+01
  0.5235988E+00  0.4366013E+00  0.3136059E+01
  0.5585054E+00  0.4367471E+00  0.3136066E+01
  0.5934120E+00  0.4372425E+00  0.3136065E+01
  0.6283185E+00  0.4380899E+00  0.3136081E+01
  0.6632251E+00  0.4395943E+00  0.3136097E+01
  0.6981317E+00  0.4411481E+00  0.3136118E+01
  0.7330383E+00  0.4435507E+00  0.3136151E+01
  0.7679449E+00  0.4460799E+00  0.3136190E+01
  0.8028514E+00  0.4489864E+00  0.3136227E+01
  0.8377581E+00  0.4521736E+00  0.3136265E+01
  0.8726646E+00  0.4555519E+00  0.3136307E+01
  0.9075713E+00  0.4597533E+00  0.3136365E+01
  0.9424778E+00  0.4639722E+00  0.3136418E+01
  0.9773844E+00  0.4687779E+00  0.3136480E+01
  0.1012291E+01  0.4739791E+00  0.3136538E+01
  0.1047198E+01  0.4793962E+00  0.3136608E+01
  0.1082104E+01  0.4851061E+00  0.3136671E+01
  0.1117011E+01  0.4911572E+00  0.3136742E+01
  0.1151917E+01  0.4980028E+00  0.3136814E+01
  0.1186824E+01  0.5044654E+00  0.3136881E+01
  0.1221731E+01  0.5111125E+00  0.3136950E+01
  0.1256637E+01  0.5184269E+00  0.3137029E+01
  0.1291544E+01  0.5258651E+00  0.3137098E+01
  0.1326450E+01  0.5338776E+00  0.3137175E+01
  0.1361357E+01  0.5423514E+00  0.3137257E+01
  0.1396263E+01  0.5507025E+00  0.3137329E+01
  0.1431170E+01  0.5589610E+00  0.3137402E+01
  0.1466077E+01  0.5684041E+00  0.3137485E+01
  0.1500983E+01  0.5769952E+00  0.3137552E+01
  0.1535890E+01  0.5873805E+00  0.3137637E+01
  0.1570796E+01  0.5962000E+00  0.3137703E+01
  0.1605703E+01  0.6060661E+00  0.3137777E+01
  0.1640610E+01  0.6161575E+00  0.3137849E+01
  0.1675516E+01  0.6256979E+00  0.3137916E+01
  0.1710423E+01  0.6361706E+00  0.3137986E+01
  0.1745329E+01  0.6466070E+00  0.3138056E+01
  0.1780236E+01  0.6573275E+00  0.3138127E+01
  0.1815143E+01  0.6677929E+00  0.3138186E+01
  0.1850049E+01  0.6785010E+00  0.3138248E+01
  0.1884956E+01  0.6892627E+00  0.3138311E+01
  0.1919862E+01  0.7003825E+00  0.3138374E+01
  0.1954769E+01  0.7113152E+00  0.3138434E+01
  0.1989675E+01  0.7222863E+00  0.3138489E+01
  0.2024582E+01  0.7334372E+00  0.3138548E+01
  0.2059489E+01  0.7445852E+00  0.3138601E+01
  0.2094395E+01  0.7556856E+00  0.3138657E+01
  0.2129302E+01  0.7667781E+00  0.3138706E+01
  0.2164208E+01  0.7779634E+00  0.3138756E+01
  0.2199115E+01  0.7890243E+00  0.3138807E+01
  0.2234021E+01  0.8000539E+00  0.3138855E+01
  0.2268928E+01  0.8110914E+00  0.3138898E+01
  0.2303835E+01  0.8219597E+00  0.3138941E+01
  0.2338741E+01  0.8327240E+00  0.3138983E+01
  0.2373648E+01  0.8435050E+00  0.3139026E+01
  0.2408554E+01  0.8540525E+00  0.3139065E+01
  0.2443461E+01  0.8646790E+00  0.3139103E+01
  0.2478368E+01  0.8750380E+00  0.3139140E+01
  0.2513274E+01  0.8853289E+00  0.3139177E+01
  0.2548181E+01  0.8953013E+00  0.3139210E+01
  0.2583087E+01  0.9052752E+00  0.3139241E+01
  0.2617994E+01  0.9148761E+00  0.3139273E+01
  0.2652900E+01  0.9244226E+00  0.3139303E+01
  0.2687807E+01  0.9337748E+00  0.3139333E+01
  0.2722714E+01  0.9426846E+00  0.3139357E+01
  0.2757620E+01  0.9516346E+00  0.3139386E+01
  0.2792527E+01  0.9605192E+00  0.3139412E+01
  0.2827433E+01  0.9690417E+00  0.3139440E+01
  0.2862340E+01  0.9772720E+00  0.3139462E+01
  0.2897247E+01  0.9848365E+00  0.3139482E+01
  0.2932153E+01  0.9921420E+00  0.3139504E+01
  0.2967060E+01  0.9995825E+00  0.3139523E+01
  0.3001966E+01  0.1006861E+01  0.3139541E+01
  0.3036873E+01  0.1013774E+01  0.3139561E+01
  0.3071780E+01  0.1020054E+01  0.3139576E+01
  0.3106686E+01  0.1025134E+01  0.3139589E+01
  0.3141593E+01  0.1031503E+01  0.3139606E+01
Zone t="Diffraction - beta =  30.000 at frequency  0.2000 rad/s",I=   181,F=POINT
 -0.3141593E+01  0.1378772E+01  0.3138053E+01
 -0.3106686E+01  0.1387526E+01  0.3138083E+01
 -0.3071780E+01  0.1392588E+01  0.3138101E+01
 -0.3036873E+01  0.1398972E+01  0.3138122E+01
 -0.3001966E+01  0.1405529E+01  0.3138143E+01
 -0.2967060E+01  0.1410764E+01  0.3138159E+01
 -0.2932153E+01  0.1415452E+01  0.3138174E+01
 -0.2897247E+01  0.1419673E+01  0.3138187E+01
 -0.2862340E+01  0.1423539E+01  0.3138201E+01
 -0.2827433E+01  0.1427039E+01  0.3138213E+01
 -0.2792527E+01  0.1430031E+01  0.3138222E+01
 -0.2757620E+01  0.1432269E+01  0.3138227E+01
 -0.2722714E+01  0.1434165E+01  0.3138236E+01
 -0.2687807E+01  0.1435631E+01  0.3138238E+01
 -0.2652900E+01  0.1436301E+01  0.3138243E+01
 -0.2617994E+01  0.1436654E+01  0.3138242E+01
 -0.2583087E+01  0.1436509E+01  0.3138239E+01
 -0.2548181E+01  0.1435454E+01  0.3138238E+01
 -0.2513274E+01  0.1434111E+01  0.3138233E+01
 -0.2478368E+01  0.1432655E+01  0.3138229E+01
 -0.2443461E+01  0.1429991E+01  0.3138221E+01
 -0.2408554E+01  0.1427145E+01  0.3138211E+01
 -0.2373648E+01  0.1423837E+01  0.3138201E+01
 -0.2338741E+01  0.1419967E+01  0.3138190E+01
 -0.2303835E+01  0.1415524E+01  0.3138175E+01
 -0.2268928E+01  0.1410648E+01  0.3138158E+01
 -0.2234021E+01  0.1405597E+01  0.3138143E+01
 -0.2199115E+01  0.1399368E+01  0.3138123E+01
 -0.2164208E+01  0.1393086E+01  0.3138104E+01
 -0.2129302E+01  0.1386557E+01  0.3138079E+01
 -0.2094395E+01  0.1379176E+01  0.3138055E+01
 -0.2059489E+01  0.1371349E+01  0.3138029E+01
 -0.2024582E+01  0.1363309E+01  0.3138001E+01
 -0.1989675E+01  0.1354565E+01  0.3137972E+01
 -0.1954769E+01  0.1345504E+01  0.3137938E+01
 -0.1919862E+01  0.1336179E+01  0.3137904E+01
 -0.1884956E+01  0.1326201E+01  0.3137867E+01
 -0.1850049E+01  0.1315833E+01  0.3137830E+01
 -0.1815143E+01  0.1305190E+01  0.3137790E+01
 -0.1780236E+01  0.1294368E+01  0.3137749E+01
 -0.1745329E+01  0.1283342E+01  0.3137705E+01
 -0.1710423E+01  0.1271774E+01  0.3137661E+01
 -0.1675516E+01  0.1259165E+01  0.3137611E+01
 -0.1640610E+01  0.1246663E+01  0.3137559E+01
 -0.1605703E+01  0.1236188E+01  0.3137516E+01
 -0.1570796E+01  0.1221523E+01  0.3137451E+01
 -0.1535890E+01  0.1207885E+01  0.3137393E+01
 -0.1500983E+01  0.1195044E+01  0.3137337E+01
 -0.1466077E+01  0.1181192E+01  0.3137272E+01
 -0.1431170E+01  0.1167379E+01  0.3137209E+01
 -0.1396263E+01  0.1153312E+01  0.3137142E+01
 -0.1361357E+01  0.1139314E+01  0.3137071E+01
 -0.1326450E+01  0.1124844E+01  0.3137000E+01
 -0.1291544E+01  0.1110288E+01  0.3136923E+01
 -0.1256637E+01  0.1095632E+01  0.3136849E+01
 -0.1221731E+01  0.1080828E+01  0.3136767E+01
 -0.1186824E+01  0.1065965E+01  0.3136684E+01
 -0.1151917E+01  0.1051040E+01  0.3136597E+01
 -0.1117011E+01  0.1036036E+01  0.3136510E+01
 -0.1082104E+01  0.1021068E+01  0.3136418E+01
 -0.1047198E+01  0.1005899E+01  0.3136322E+01
 -0.1012291E+01  0.9908456E+00  0.3136227E+01
 -0.9773844E+00  0.9758497E+00  0.3136128E+01
 -0.9424778E+00  0.9608727E+00  0.3136023E+01
 -0.9075713E+00  0.9458129E+00  0.3135915E+01
 -0.8726646E+00  0.9310058E+00  0.3135808E+01
 -0.8377581E+00  0.9162334E+00  0.3135695E+01
 -0.8028514E+00  0.9015039E+00  0.3135584E+01
 -0.7679449E+00  0.8869767E+00  0.3135462E+01
 -0.7330383E+00  0.8725784E+00  0.3135346E+01
 -0.6981317E+00  0.8583226E+00  0.3135225E+01
 -0.6632251E+00  0.8441595E+00  0.3135094E+01
 -0.6283185E+00  0.8303486E+00  0.3134972E+01
 -0.5934120E+00  0.8166921E+00  0.3134843E+01
 -0.5585054E+00  0.8031868E+00  0.3134709E+01
 -0.5235988E+00  0.7900569E+00  0.3134575E+01
 -0.4886922E+00  0.7770893E+00  0.3134442E+01
 -0.4537856E+00  0.7643966E+00  0.3134306E+01
 -0.4188790E+00  0.7520909E+00  0.3134162E+01
 -0.3839725E+00  0.7401194E+00  0.3134026E+01
 -0.3490659E+00  0.7283747E+00  0.3133885E+01
 -0.3141593E+00  0.7168794E+00  0.3133743E+01
 -0.2792527E+00  0.7059298E+00  0.3133604E+01
 -0.2443461E+00  0.6952878E+00  0.3133464E+01
 -0.2094395E+00  0.6847882E+00  0.3133325E+01
 -0.1745329E+00  0.6750144E+00  0.3133188E+01
 -0.1396263E+00  0.6654710E+00  0.3133053E+01