VARIABLES="w (rad/s)"
"abs(F   1   1)" "angle(F   1   1)"
"abs(F   1   2)" "angle(F   1   2)"
"abs(F   1   3)" "angle(F   1   3)"
"abs(F   1   4)" "angle(F   1   4)"
"abs(F   1   5)" "angle(F   1   5)"
"abs(F   1   6)" "angle(F   1   6)"
Zone t="Diffraction force - beta =  30.000",I=    40,F=POINT
  0.5000000E-01  0.9913719E+04 -0.3141424E+01  0.5723912E+04 -0.3141424E+01  0.1301235E+04  0.1815647E+01  0.4187786E+04  0.2976750E-03  0.7253292E+04 -0.3141295E+01  0.3569808E-02 -0.1866271E+01
  0.9999999E-01  0.1994412E+05 -0.3140912E+01  0.1151654E+05 -0.3140912E+01  0.4700258E+04  0.1841729E+01  0.8429358E+04  0.1199125E-02  0.1459870E+05 -0.3140393E+01  0.5908630E-01 -0.1619172E+01
  0.1500000E+00  0.3002260E+05 -0.3140035E+01  0.1733965E+05 -0.3140035E+01  0.9866682E+04  0.1860538E+01  0.1267902E+05  0.2743573E-02  0.2195604E+05 -0.3138849E+01  0.2998697E+00 -0.1617245E+01
  0.2000000E+00  0.4025227E+05 -0.3138756E+01  0.2325438E+05 -0.3138757E+01  0.1659754E+05  0.1875971E+01  0.1696760E+05  0.4993065E-02  0.2937732E+05 -0.3136599E+01  0.9614788E+00 -0.1579874E+01
  0.2500000E+00  0.5077717E+05 -0.3137025E+01  0.2934568E+05 -0.3137028E+01  0.2474012E+05  0.1889254E+01  0.2132479E+05  0.8038964E-02  0.3691242E+05 -0.3133551E+01  0.2427547E+01 -0.1580395E+01
  0.3000000E+00  0.6144700E+05 -0.3134760E+01  0.3552873E+05 -0.3134766E+01  0.3411942E+05  0.1901511E+01  0.2569254E+05  0.1203144E-01  0.4445897E+05 -0.3129556E+01  0.5196152E+01 -0.1570939E+01
  0.3500000E+00  0.7249546E+05 -0.3131862E+01  0.4194108E+05 -0.3131875E+01  0.4476678E+05  0.1912205E+01  0.3013252E+05  0.1714932E-01  0.5212139E+05 -0.3124433E+01  0.1000708E+02 -0.1570709E+01
  0.4000001E+00  0.8406527E+05 -0.3128206E+01  0.4866868E+05 -0.3128228E+01  0.5631562E+05  0.1922379E+01  0.3472763E+05  0.2359530E-01  0.6003886E+05 -0.3117978E+01  0.1792566E+02 -0.1569714E+01
  0.4500001E+00  0.9598404E+05 -0.3123583E+01  0.5561532E+05 -0.3123622E+01  0.6897342E+05  0.1932190E+01  0.3939289E+05  0.3174121E-01  0.6806122E+05 -0.3109819E+01  0.3024117E+02 -0.1570463E+01
  0.5000001E+00  0.1083083E+06 -0.3117785E+01  0.6281827E+05 -0.3117848E+01  0.8195341E+05  0.1942052E+01  0.4404076E+05  0.4204644E-01  0.7603242E+05 -0.3099488E+01  0.4878894E+02 -0.1570954E+01
  0.5500002E+00  0.1217711E+06 -0.3110501E+01  0.7071001E+05 -0.3110604E+01  0.9599269E+05  0.1951604E+01  0.4917189E+05  0.5483807E-01  0.8480544E+05 -0.3086653E+01  0.7671861E+02 -0.1570205E+01
  0.5999997E+00  0.1359380E+06 -0.3101449E+01  0.7904719E+05 -0.3101613E+01  0.1099984E+06  0.1961270E+01  0.5452593E+05  0.7067177E-01  0.9392171E+05 -0.3070748E+01  0.1174287E+03 -0.1571072E+01
  0.6500000E+00  0.1507148E+06 -0.3089871E+01  0.8778479E+05 -0.3090125E+01  0.1240525E+06  0.1970845E+01  0.5983914E+05  0.9107304E-01  0.1029145E+06 -0.3050228E+01  0.1755823E+03 -0.1571182E+01
  0.7000000E+00  0.1664978E+06 -0.3075221E+01  0.9716655E+05 -0.3075610E+01  0.1388763E+06  0.1982368E+01  0.6556183E+05  0.1166070E+00  0.1125432E+06 -0.3024505E+01  0.2582341E+03 -0.1570506E+01
  0.7500001E+00  0.1836910E+06 -0.3057321E+01  0.1074513E+06 -0.3057909E+01  0.1520561E+06  0.1991675E+01  0.7194709E+05  0.1476400E+00  0.1232075E+06 -0.2993168E+01  0.3769142E+03 -0.1570883E+01
  0.8000000E+00  0.2020920E+06 -0.3034611E+01  0.1185464E+06 -0.3035496E+01  0.1651661E+06  0.2000908E+01  0.7868523E+05  0.1866221E+00  0.1343382E+06 -0.2953685E+01  0.5444844E+03 -0.1570980E+01
  0.8500000E+00  0.2214873E+06 -0.3006030E+01  0.1303596E+06 -0.3007354E+01  0.1782658E+06  0.2014780E+01  0.8600607E+05  0.2345614E+00  0.1462928E+06 -0.2904960E+01  0.7791198E+03 -0.1570896E+01
  0.9000000E+00  0.2411811E+06 -0.2971507E+01  0.1425240E+06 -0.2973453E+01  0.1883052E+06  0.2023524E+01  0.9344891E+05  0.2929128E+00  0.1582340E+06 -0.2845402E+01  0.1105841E+04 -0.1570819E+01
  0.9500000E+00  0.2605320E+06 -0.2929291E+01  0.1547069E+06 -0.2932130E+01  0.1975907E+06  0.2032045E+01  0.1005624E+06  0.3645980E+00  0.1693342E+06 -0.2771840E+01  0.1554565E+04 -0.1570325E+01
  0.1000000E+01  0.2799752E+06 -0.2879148E+01  0.1672413E+06 -0.2883278E+01  0.2063410E+06  0.2047165E+01  0.1086069E+06  0.4469047E+00  0.1816266E+06 -0.2686681E+01  0.2180454E+04 -0.1570740E+01
  0.1050000E+01  0.2976442E+06 -0.2822802E+01  0.1790921E+06 -0.2828701E+01  0.2111360E+06  0.2055473E+01  0.1167202E+06  0.5392363E+00  0.1935990E+06 -0.2590186E+01  0.3037924E+04 -0.1571050E+01
  0.1100000E+01  0.3113523E+06 -0.2759796E+01  0.1890094E+06 -0.2768097E+01  0.2144581E+06  0.2061973E+01  0.1232055E+06  0.6440830E+00  0.2023686E+06 -0.2479237E+01  0.4183043E+04 -0.1570572E+01
  0.1150000E+01  0.3206968E+06 -0.2690557E+01  0.1968191E+06 -0.2702137E+01  0.2165379E+06  0.2073453E+01  0.1285359E+06  0.7599716E+00  0.2087205E+06 -0.2354532E+01  0.5710585E+04 -0.1570452E+01
  0.1200000E+01  0.3246744E+06 -0.2619663E+01  0.2019937E+06 -0.2635581E+01  0.2160687E+06  0.2084145E+01  0.1335165E+06  0.8763885E+00  0.2139805E+06 -0.2226222E+01  0.7740461E+04 -0.1571231E+01
  0.1250000E+01  0.3218094E+06 -0.2549529E+01  0.2036353E+06 -0.2570976E+01  0.2132228E+06  0.2089590E+01  0.1357928E+06  0.9983481E+00  0.2144353E+06 -0.2087795E+01  0.1035190E+05 -0.1570461E+01
  0.1300000E+01  0.3124298E+06 -0.2481274E+01  0.2019732E+06 -0.2509835E+01  0.2095100E+06  0.2092684E+01  0.1357583E+06  0.1122364E+01  0.2108753E+06 -0.1940914E+01  0.1370164E+05 -0.1570830E+01
  0.1350000E+01  0.2967375E+06 -0.2416461E+01  0.1971268E+06 -0.2453977E+01  0.2041708E+06  0.2103363E+01  0.1344495E+06  0.1240486E+01  0.2051868E+06 -0.1792957E+01  0.1795085E+05 -0.1570979E+01
  0.1400000E+01  0.2760785E+06 -0.2359507E+01  0.1899559E+06 -0.2407785E+01  0.1967507E+06  0.2108247E+01  0.1317915E+06  0.1352558E+01  0.1974871E+06 -0.1642337E+01  0.2330054E+05 -0.1569749E+01
  0.1450000E+01  0.2512077E+06 -0.2311558E+01  0.1809261E+06 -0.2372248E+01  0.1884293E+06  0.2110111E+01  0.1272654E+06  0.1459180E+01  0.1872601E+06 -0.1484684E+01  0.2990755E+05 -0.1570452E+01
  0.1500000E+01  0.2230642E+06 -0.2272765E+01  0.1706201E+06 -0.2347099E+01  0.1795199E+06  0.2106757E+01  0.1210354E+06  0.1561127E+01  0.1753991E+06 -0.1315463E+01  0.3798763E+05 -0.1569041E+01
  0.1550000E+01  0.1927194E+06 -0.2245969E+01  0.1598063E+06 -0.2333430E+01  0.1694194E+06  0.2111994E+01  0.1145950E+06  0.1649093E+01  0.1640238E+06 -0.1143493E+01  0.4791328E+05 -0.1569160E+01
  0.1600000E+01  0.1614715E+06 -0.2236222E+01  0.1493310E+06 -0.2332069E+01  0.1586466E+06  0.2112168E+01  0.1076891E+06  0.1722851E+01  0.1531025E+06 -0.9650049E+00  0.5994705E+05 -0.1567132E+01
  0.1650000E+01  0.1302298E+06 -0.2249375E+01  0.1396933E+06 -0.2340229E+01  0.1474882E+06  0.2113816E+01  0.1003069E+06  0.1788464E+01  0.1433508E+06 -0.7703084E+00  0.7443196E+05 -0.1565259E+01
  0.1700000E+01  0.9945496E+05 -0.2298860E+01  0.1308481E+06 -0.2354701E+01  0.1360802E+06  0.2109500E+01  0.9268335E+05  0.1841482E+01  0.1355718E+06 -0.5607538E+00  0.9155955E+05 -0.1561566E+01
  0.1750000E+01  0.7086059E+05 -0.2420113E+01  0.1233842E+06 -0.2370745E+01  0.1244246E+06  0.2100542E+01  0.8523798E+05  0.1887003E+01  0.1310275E+06 -0.3375280E+00  0.1122805E+06 -0.1556397E+01
  0.1800000E+01  0.4658142E+05 -0.2710191E+01  0.1167014E+06 -0.2382854E+01  0.1128508E+06  0.2096643E+01  0.7903541E+05  0.1911051E+01  0.1292492E+06 -0.1230291E+00  0.1365904E+06 -0.1549002E+01
  0.1850000E+01  0.3413917E+05  0.2938306E+01  0.1107435E+06 -0.2384726E+01  0.1019355E+06  0.2099096E+01  0.7376525E+05  0.1928459E+01  0.1306601E+06  0.8574904E-01  0.1661169E+06 -0.1537748E+01
  0.1900000E+01  0.4117766E+05  0.2254771E+01  0.1045291E+06 -0.2370879E+01  0.9105105E+05  0.2088694E+01  0.6917924E+05  0.1949690E+01  0.1352474E+06  0.2826382E+00  0.2005117E+06 -0.1522585E+01
  0.1950000E+01  0.5888441E+05  0.1910968E+01  0.9708234E+05 -0.2341108E+01  0.8090005E+05  0.2087392E+01  0.6519817E+05  0.1979952E+01  0.1426681E+06  0.4604069E+00  0.2410346E+06 -0.1500539E+01
  0.2000000E+01  0.7865213E+05  0.1754008E+01  0.8829482E+05 -0.2295919E+01  0.6988389E+05  0.2065767E+01  0.6126316E+05  0.2031012E+01  0.1522297E+06  0.6160315E+00  0.2887851E+06 -0.1470235E+01
