VARIABLES="w (rad/s)"
"abs(F   1   1)" "angle(F   1   1)"
"abs(F   1   2)" "angle(F   1   2)"
"abs(F   1   3)" "angle(F   1   3)"
"abs(F   1   4)" "angle(F   1   4)"
"abs(F   1   5)" "angle(F   1   5)"
"abs(F   1   6)" "angle(F   1   6)"
Zone t="Excitation force - beta =  30.000",I=    40,F=POINT
  0.5000000E-01  0.2508012E+05 -0.3141526E+01  0.1448024E+05 -0.3141531E+01  0.9785921E+06 -0.1571118E+01  0.1870355E+05  0.4524320E-04  0.3239561E+05 -0.3141522E+01  0.1970241E+00 -0.1578241E+01
  0.9999999E-01  0.5029632E+05 -0.3141323E+01  0.2904041E+05 -0.3141322E+01  0.9718929E+06 -0.1572090E+01  0.3745760E+05  0.2449759E-03  0.6487925E+05 -0.3141322E+01  0.4538768E-01 -0.1527583E+01
  0.1500000E+00  0.7559994E+05 -0.3140974E+01  0.4365378E+05 -0.3140974E+01  0.9612529E+06 -0.1573729E+01  0.5621342E+05  0.6253829E-03  0.9736716E+05 -0.3140975E+01  0.4951090E+00 -0.1575774E+01
  0.2000000E+00  0.1011149E+06 -0.3140464E+01  0.5839352E+05 -0.3140464E+01  0.9468992E+06 -0.1576063E+01  0.7499923E+05  0.1142659E-02  0.1299086E+06 -0.3140464E+01  0.1490551E+01 -0.1579713E+01
  0.2500000E+00  0.1270075E+06 -0.3139766E+01  0.7335741E+05 -0.3139767E+01  0.9290093E+06 -0.1579134E+01  0.9384287E+05  0.1826458E-02  0.1625523E+06 -0.3139766E+01  0.4132496E+01 -0.1577926E+01
  0.3000000E+00  0.1531515E+06 -0.3138851E+01  0.8847465E+05 -0.3138851E+01  0.9077932E+06 -0.1583001E+01  0.1126855E+06  0.2743740E-02  0.1951963E+06 -0.3138851E+01  0.8828476E+01 -0.1570745E+01
  0.3500000E+00  0.1798068E+06 -0.3137669E+01  0.1038977E+06 -0.3137670E+01  0.8832575E+06 -0.1587767E+01  0.1315885E+06  0.3927666E-02  0.2279472E+06 -0.3137670E+01  0.1684803E+02 -0.1570425E+01
  0.4000001E+00  0.2071447E+06 -0.3136160E+01  0.1197293E+06 -0.3136161E+01  0.8558095E+06 -0.1593460E+01  0.1506361E+06  0.5436548E-02  0.2609491E+06 -0.3136160E+01  0.2988879E+02 -0.1570220E+01
  0.4500001E+00  0.2350237E+06 -0.3134238E+01  0.1358910E+06 -0.3134238E+01  0.8253248E+06 -0.1600349E+01  0.1697448E+06  0.7365733E-02  0.2940579E+06 -0.3134239E+01  0.5048006E+02 -0.1570533E+01
  0.5000001E+00  0.2635328E+06 -0.3131809E+01  0.1524387E+06 -0.3131809E+01  0.7926238E+06 -0.1608315E+01  0.1888287E+06  0.9802127E-02  0.3271239E+06 -0.3131809E+01  0.8146973E+02 -0.1570706E+01
  0.5500002E+00  0.2934387E+06 -0.3128692E+01  0.1698245E+06 -0.3128692E+01  0.7571148E+06 -0.1617936E+01  0.2083890E+06  0.1293284E-01  0.3610060E+06 -0.3128693E+01  0.1276202E+03 -0.1570565E+01
  0.5999997E+00  0.3243386E+06 -0.3124771E+01  0.1878233E+06 -0.3124770E+01  0.7199282E+06 -0.1628985E+01  0.2281622E+06  0.1687502E-01  0.3952458E+06 -0.3124771E+01  0.1948172E+03 -0.1570905E+01
  0.6500000E+00  0.3561635E+06 -0.3119714E+01  0.2064046E+06 -0.3119711E+01  0.6811152E+06 -0.1641789E+01  0.2478717E+06  0.2195680E-01  0.4293605E+06 -0.3119721E+01  0.2913527E+03 -0.1571115E+01
  0.7000000E+00  0.3893217E+06 -0.3113225E+01  0.2258196E+06 -0.3113218E+01  0.6403367E+06 -0.1657668E+01  0.2679408E+06  0.2847121E-01  0.4640717E+06 -0.3113258E+01  0.4285023E+03 -0.1570565E+01
  0.7500001E+00  0.4242114E+06 -0.3105137E+01  0.2463238E+06 -0.3105123E+01  0.5996515E+06 -0.1674583E+01  0.2885753E+06  0.3668549E-01  0.4997052E+06 -0.3105123E+01  0.6242121E+03 -0.1570823E+01
  0.8000000E+00  0.4605760E+06 -0.3094723E+01  0.2677934E+06 -0.3094697E+01  0.5580080E+06 -0.1694532E+01  0.3093659E+06  0.4720801E-01  0.5355309E+06 -0.3094716E+01  0.8996996E+03 -0.1570885E+01
  0.8500000E+00  0.4980898E+06 -0.3081460E+01  0.2900727E+06 -0.3081409E+01  0.5160939E+06 -0.1719715E+01  0.3303878E+06  0.6053880E-01  0.5716485E+06 -0.3081563E+01  0.1285293E+04 -0.1570855E+01
  0.9000000E+00  0.5358806E+06 -0.3065338E+01  0.3126941E+06 -0.3065242E+01  0.4757901E+06 -0.1744792E+01  0.3509447E+06  0.7696176E-01  0.6068239E+06 -0.3065409E+01  0.1821877E+04 -0.1570825E+01
  0.9500000E+00  0.5729978E+06 -0.3045639E+01  0.3351482E+06 -0.3045461E+01  0.4358620E+06 -0.1773954E+01  0.3702132E+06  0.9701008E-01  0.6395901E+06 -0.3045768E+01  0.2559707E+04 -0.1570513E+01
  0.1000000E+01  0.6094612E+06 -0.3022125E+01  0.3575326E+06 -0.3021815E+01  0.3973807E+06 -0.1811211E+01  0.3890282E+06  0.1209476E+00  0.6712388E+06 -0.3022420E+01  0.3580787E+04 -0.1570757E+01
  0.1050000E+01  0.6429881E+06 -0.2995995E+01  0.3785754E+06 -0.2995458E+01  0.3614630E+06 -0.1846425E+01  0.4060498E+06  0.1481416E+00  0.6994122E+06 -0.2996066E+01  0.4973556E+04 -0.1570949E+01
  0.1100000E+01  0.6708655E+06 -0.2967799E+01  0.3967279E+06 -0.2966872E+01  0.3269754E+06 -0.1885312E+01  0.4190247E+06  0.1774843E+00  0.7202237E+06 -0.2967925E+01  0.6835125E+04 -0.1570652E+01
  0.1150000E+01  0.6921666E+06 -0.2938232E+01  0.4115209E+06 -0.2936682E+01  0.2950581E+06 -0.1932161E+01  0.4278938E+06  0.2084465E+00  0.7334558E+06 -0.2938646E+01  0.9309416E+04 -0.1570580E+01
  0.1200000E+01  0.7058211E+06 -0.2910201E+01  0.4223901E+06 -0.2907677E+01  0.2658629E+06 -0.1981350E+01  0.4336074E+06  0.2388816E+00  0.7406033E+06 -0.2910483E+01  0.1257250E+05 -0.1571067E+01
  0.1250000E+01  0.7104651E+06 -0.2886037E+01  0.4284904E+06 -0.2881986E+01  0.2384700E+06 -0.2030115E+01  0.4337399E+06  0.2662995E+00  0.7376864E+06 -0.2886128E+01  0.1676916E+05 -0.1570590E+01
  0.1300000E+01  0.7065909E+06 -0.2866943E+01  0.4301346E+06 -0.2860605E+01  0.2125278E+06 -0.2084537E+01  0.4290705E+06  0.2891299E+00  0.7259376E+06 -0.2867352E+01  0.2212759E+05 -0.1570819E+01
  0.1350000E+01  0.6948089E+06 -0.2854409E+01  0.4276387E+06 -0.2844676E+01  0.1903240E+06 -0.2146811E+01  0.4214808E+06  0.3065266E+00  0.7086037E+06 -0.2855247E+01  0.2888785E+05 -0.1570912E+01
  0.1400000E+01  0.6772854E+06 -0.2850209E+01  0.4222632E+06 -0.2835572E+01  0.1695778E+06 -0.2206795E+01  0.4114195E+06  0.3180716E+00  0.6865369E+06 -0.2850581E+01  0.3733633E+05 -0.1570143E+01
  0.1450000E+01  0.6552541E+06 -0.2854763E+01  0.4146437E+06 -0.2833180E+01  0.1502342E+06 -0.2270656E+01  0.3991190E+06  0.3224397E+00  0.6601971E+06 -0.2855098E+01  0.4772055E+05 -0.1570580E+01
  0.1500000E+01  0.6298612E+06 -0.2867765E+01  0.4053487E+06 -0.2836553E+01  0.1318537E+06 -0.2339601E+01  0.3852238E+06  0.3195932E+00  0.6308746E+06 -0.2869226E+01  0.6035073E+05 -0.1569691E+01
  0.1550000E+01  0.6024928E+06 -0.2889233E+01  0.3951267E+06 -0.2844836E+01  0.1169553E+06 -0.2413214E+01  0.3717576E+06  0.3123628E+00  0.6018709E+06 -0.2890958E+01  0.7569652E+05 -0.1569760E+01
  0.1600000E+01  0.5745722E+06 -0.2918678E+01  0.3846763E+06 -0.2856715E+01  0.1029356E+06 -0.2488502E+01  0.3587640E+06  0.3012388E+00  0.5735059E+06 -0.2920338E+01  0.9411775E+05 -0.1568462E+01
  0.1650000E+01  0.5466737E+06 -0.2955065E+01  0.3740664E+06 -0.2870019E+01  0.9073698E+05 -0.2567909E+01  0.3456332E+06  0.2873002E+00  0.5452277E+06 -0.2957468E+01  0.1160528E+06 -0.1567245E+01
  0.1700000E+01  0.5188221E+06 -0.2998008E+01  0.3629037E+06 -0.2883399E+01  0.7916129E+05 -0.2650673E+01  0.3328136E+06  0.2716735E+00  0.5178630E+06 -0.3001912E+01  0.1417835E+06 -0.1564835E+01
  0.1750000E+01  0.4917106E+06 -0.3046264E+01  0.3513301E+06 -0.2894392E+01  0.6842233E+05 -0.2736086E+01  0.3196913E+06  0.2562011E+00  0.4912477E+06 -0.3053150E+01  0.1723409E+06 -0.1561416E+01
  0.1800000E+01  0.4651629E+06 -0.3099708E+01  0.3385298E+06 -0.2902135E+01  0.5962722E+05 -0.2823983E+01  0.3071154E+06  0.2450387E+00  0.4669752E+06 -0.3107620E+01  0.2077892E+06 -0.1556470E+01
  0.1850000E+01  0.4394218E+06  0.3125907E+01  0.3242211E+06 -0.2904851E+01  0.5269082E+05 -0.2918253E+01  0.2935710E+06  0.2375970E+00  0.4437579E+06  0.3116373E+01  0.2498026E+06 -0.1548821E+01
  0.1900000E+01  0.4141613E+06  0.3064456E+01  0.3074439E+06 -0.2902464E+01  0.4543053E+05 -0.3016442E+01  0.2782966E+06  0.2330541E+00  0.4213816E+06  0.3051960E+01  0.2980537E+06 -0.1538370E+01
  0.1950000E+01  0.3892114E+06  0.2998482E+01  0.2875809E+06 -0.2896877E+01  0.3997239E+05 -0.3115099E+01  0.2610937E+06  0.2311527E+00  0.3997374E+06  0.2982344E+01  0.3537727E+06 -0.1522949E+01
  0.2000000E+01  0.3648225E+06  0.2927990E+01  0.2648558E+06 -0.2889429E+01  0.3325452E+05  0.3081875E+01  0.2415770E+06  0.2292134E+00  0.3788874E+06  0.2907305E+01  0.4179615E+06 -0.1501376E+01
