VARIABLES="w (rad/s)"
"abs(F   1   1)" "angle(F   1   1)"
"abs(F   1   2)" "angle(F   1   2)"
"abs(F   1   3)" "angle(F   1   3)"
"abs(F   1   4)" "angle(F   1   4)"
"abs(F   1   5)" "angle(F   1   5)"
"abs(F   1   6)" "angle(F   1   6)"
Zone t="Excitation force - beta =  30.000",I=    40,F=POINT
  0.5000000E-01  0.2507924E+05 -0.3141526E+01  0.1447973E+05 -0.3141531E+01  0.9785944E+06 -0.1571118E+01  0.1870323E+05  0.4530272E-04  0.3239504E+05 -0.3141522E+01  0.1966645E+00 -0.1556937E+01
  0.9999999E-01  0.5029584E+05 -0.3141323E+01  0.2904013E+05 -0.3141322E+01  0.9718927E+06 -0.1572090E+01  0.3745693E+05  0.2449860E-03  0.6487811E+05 -0.3141322E+01  0.4380567E-01 -0.1461902E+01
  0.1500000E+00  0.7559955E+05 -0.3140974E+01  0.4365357E+05 -0.3140974E+01  0.9612531E+06 -0.1573729E+01  0.5621292E+05  0.6251954E-03  0.9736624E+05 -0.3140975E+01  0.4931736E+00 -0.1512287E+01
  0.2000000E+00  0.1011149E+06 -0.3140464E+01  0.5839352E+05 -0.3140464E+01  0.9468992E+06 -0.1576063E+01  0.7499928E+05  0.1142503E-02  0.1299088E+06 -0.3140464E+01  0.1491088E+01 -0.1561233E+01
  0.2500000E+00  0.1270071E+06 -0.3139767E+01  0.7335716E+05 -0.3139767E+01  0.9290061E+06 -0.1579134E+01  0.9384267E+05  0.1826576E-02  0.1625519E+06 -0.3139766E+01  0.4128544E+01 -0.1572707E+01
  0.3000000E+00  0.1531515E+06 -0.3138851E+01  0.8847466E+05 -0.3138851E+01  0.9077930E+06 -0.1583001E+01  0.1126855E+06  0.2745722E-02  0.1951962E+06 -0.3138851E+01  0.8780595E+01 -0.1569426E+01
  0.3500000E+00  0.1798068E+06 -0.3137669E+01  0.1038977E+06 -0.3137670E+01  0.8832559E+06 -0.1587767E+01  0.1315885E+06  0.3927490E-02  0.2279471E+06 -0.3137670E+01  0.1684504E+02 -0.1568760E+01
  0.4000001E+00  0.2071448E+06 -0.3136160E+01  0.1197294E+06 -0.3136161E+01  0.8558094E+06 -0.1593460E+01  0.1506361E+06  0.5436627E-02  0.2609490E+06 -0.3136160E+01  0.2988623E+02 -0.1571000E+01
  0.4499998E+00  0.2350235E+06 -0.3134238E+01  0.1358909E+06 -0.3134238E+01  0.8253246E+06 -0.1600349E+01  0.1697447E+06  0.7365699E-02  0.2940577E+06 -0.3134240E+01  0.5041363E+02 -0.1569824E+01
  0.5000001E+00  0.2635331E+06 -0.3131809E+01  0.1524390E+06 -0.3131809E+01  0.7926212E+06 -0.1608315E+01  0.1888289E+06  0.9802002E-02  0.3271241E+06 -0.3131809E+01  0.8148536E+02 -0.1571044E+01
  0.5500002E+00  0.2934388E+06 -0.3128692E+01  0.1698245E+06 -0.3128692E+01  0.7571149E+06 -0.1617937E+01  0.2083889E+06  0.1293266E-01  0.3610060E+06 -0.3128692E+01  0.1275936E+03 -0.1570822E+01
  0.5999997E+00  0.3243343E+06 -0.3124770E+01  0.1878207E+06 -0.3124769E+01  0.7199919E+06 -0.1628985E+01  0.2281605E+06  0.1687575E-01  0.3952431E+06 -0.3124771E+01  0.1948026E+03 -0.1570483E+01
  0.6500000E+00  0.3561638E+06 -0.3119714E+01  0.2064048E+06 -0.3119711E+01  0.6811127E+06 -0.1641789E+01  0.2478719E+06  0.2195648E-01  0.4293608E+06 -0.3119722E+01  0.2913512E+03 -0.1570999E+01
  0.6999999E+00  0.3893226E+06 -0.3113225E+01  0.2258201E+06 -0.3113218E+01  0.6403281E+06 -0.1657668E+01  0.2679413E+06  0.2847133E-01  0.4640725E+06 -0.3113258E+01  0.4285395E+03 -0.1570824E+01
  0.7500000E+00  0.4242161E+06 -0.3105136E+01  0.2463265E+06 -0.3105122E+01  0.5995660E+06 -0.1674582E+01  0.2885783E+06  0.3668625E-01  0.4997102E+06 -0.3105122E+01  0.6242430E+03 -0.1570701E+01
  0.8000000E+00  0.4605701E+06 -0.3094724E+01  0.2677899E+06 -0.3094698E+01  0.5579257E+06 -0.1694533E+01  0.3093622E+06  0.4720725E-01  0.5355247E+06 -0.3094716E+01  0.8996211E+03 -0.1570694E+01
  0.8500000E+00  0.4980912E+06 -0.3081460E+01  0.2900734E+06 -0.3081410E+01  0.5161025E+06 -0.1719715E+01  0.3303885E+06  0.6053906E-01  0.5716501E+06 -0.3081563E+01  0.1285245E+04 -0.1570746E+01
  0.8999999E+00  0.5358778E+06 -0.3065338E+01  0.3126923E+06 -0.3065243E+01  0.4757553E+06 -0.1744792E+01  0.3509426E+06  0.7696161E-01  0.6068206E+06 -0.3065410E+01  0.1821721E+04 -0.1570705E+01
  0.9499999E+00  0.5729963E+06 -0.3045640E+01  0.3351474E+06 -0.3045461E+01  0.4359030E+06 -0.1773955E+01  0.3702123E+06  0.9700937E-01  0.6395886E+06 -0.3045768E+01  0.2559603E+04 -0.1570512E+01
  0.9999999E+00  0.6094778E+06 -0.3022115E+01  0.3575423E+06 -0.3021805E+01  0.3974978E+06 -0.1811206E+01  0.3890401E+06  0.1209574E+00  0.6712592E+06 -0.3022410E+01  0.3580847E+04 -0.1570755E+01
  0.1050000E+01  0.6429879E+06 -0.2995995E+01  0.3785752E+06 -0.2995458E+01  0.3614722E+06 -0.1846425E+01  0.4060496E+06  0.1481417E+00  0.6994122E+06 -0.2996067E+01  0.4973527E+04 -0.1570931E+01
  0.1100000E+01  0.6708602E+06 -0.2967802E+01  0.3967248E+06 -0.2966875E+01  0.3269840E+06 -0.1885314E+01  0.4190212E+06  0.1774811E+00  0.7202182E+06 -0.2967928E+01  0.6835053E+04 -0.1570640E+01
  0.1150000E+01  0.6921668E+06 -0.2938232E+01  0.4115210E+06 -0.2936682E+01  0.2950498E+06 -0.1932162E+01  0.4278941E+06  0.2084460E+00  0.7334566E+06 -0.2938646E+01  0.9309393E+04 -0.1570595E+01
  0.1200000E+01  0.7058209E+06 -0.2910201E+01  0.4223900E+06 -0.2907677E+01  0.2658592E+06 -0.1981351E+01  0.4336071E+06  0.2388806E+00  0.7406033E+06 -0.2910483E+01  0.1257235E+05 -0.1571053E+01
  0.1250000E+01  0.7104652E+06 -0.2886037E+01  0.4284904E+06 -0.2881986E+01  0.2384311E+06 -0.2030115E+01  0.4337398E+06  0.2662993E+00  0.7376865E+06 -0.2886128E+01  0.1676923E+05 -0.1570589E+01
  0.1300000E+01  0.7065919E+06 -0.2866942E+01  0.4301351E+06 -0.2860605E+01  0.2125534E+06 -0.2084537E+01  0.4290710E+06  0.2891301E+00  0.7259389E+06 -0.2867351E+01  0.2212758E+05 -0.1570822E+01
  0.1350000E+01  0.6948097E+06 -0.2854409E+01  0.4276390E+06 -0.2844676E+01  0.1903236E+06 -0.2146810E+01  0.4214814E+06  0.3065272E+00  0.7086042E+06 -0.2855246E+01  0.2888766E+05 -0.1570898E+01
  0.1400000E+01  0.6772861E+06 -0.2850209E+01  0.4222636E+06 -0.2835572E+01  0.1694725E+06 -0.2206791E+01  0.4114199E+06  0.3180718E+00  0.6865378E+06 -0.2850581E+01  0.3733619E+05 -0.1570141E+01
  0.1450000E+01  0.6552514E+06 -0.2854759E+01  0.4146421E+06 -0.2833175E+01  0.1500862E+06 -0.2270653E+01  0.3991180E+06  0.3224441E+00  0.6601952E+06 -0.2855094E+01  0.4772085E+05 -0.1570574E+01
  0.1500000E+01  0.6298758E+06 -0.2867762E+01  0.4053577E+06 -0.2836551E+01  0.1320933E+06 -0.2339571E+01  0.3852317E+06  0.3195949E+00  0.6308877E+06 -0.2869223E+01  0.6034823E+05 -0.1569687E+01
  0.1550000E+01  0.6024925E+06 -0.2889239E+01  0.3951263E+06 -0.2844843E+01  0.1166954E+06 -0.2413206E+01  0.3717566E+06  0.3123555E+00  0.6018701E+06 -0.2890963E+01  0.7569539E+05 -0.1569755E+01
  0.1600000E+01  0.5745738E+06 -0.2918691E+01  0.3846776E+06 -0.2856731E+01  0.1030485E+06 -0.2488518E+01  0.3587631E+06  0.3012216E+00  0.5735058E+06 -0.2920351E+01  0.9411374E+05 -0.1568461E+01
  0.1650000E+01  0.5466742E+06 -0.2955066E+01  0.3740667E+06 -0.2870020E+01  0.9077236E+05 -0.2567908E+01  0.3456335E+06  0.2872991E+00  0.5452282E+06 -0.2957469E+01  0.1160522E+06 -0.1567242E+01
  0.1700000E+01  0.5188233E+06 -0.2998006E+01  0.3629042E+06 -0.2883398E+01  0.7913149E+05 -0.2650667E+01  0.3328143E+06  0.2716747E+00  0.5178640E+06 -0.3001910E+01  0.1417828E+06 -0.1564835E+01
  0.1750000E+01  0.4917120E+06 -0.3046267E+01  0.3513319E+06 -0.2894398E+01  0.6847355E+05 -0.2736107E+01  0.3196941E+06  0.2561940E+00  0.4912498E+06 -0.3053153E+01  0.1723420E+06 -0.1561416E+01
  0.1800000E+01  0.4651616E+06 -0.3099711E+01  0.3385284E+06 -0.2902139E+01  0.5950464E+05 -0.2823925E+01  0.3071139E+06  0.2450344E+00  0.4669739E+06 -0.3107623E+01  0.2077857E+06 -0.1556471E+01
  0.1850000E+01  0.4394218E+06  0.3125907E+01  0.3242215E+06 -0.2904851E+01  0.5248441E+05 -0.2918211E+01  0.2935714E+06  0.2375971E+00  0.4437580E+06  0.3116373E+01  0.2498026E+06 -0.1548822E+01
  0.1900000E+01  0.4141623E+06  0.3064456E+01  0.3074447E+06 -0.2902460E+01  0.4557576E+05 -0.3016467E+01  0.2782977E+06  0.2330589E+00  0.4213828E+06  0.3051961E+01  0.2980585E+06 -0.1538369E+01
  0.1950000E+01  0.3892113E+06  0.2998482E+01  0.2875811E+06 -0.2896877E+01  0.4004000E+05 -0.3115094E+01  0.2610938E+06  0.2311524E+00  0.3997374E+06  0.2982343E+01  0.3537723E+06 -0.1522949E+01
  0.2000000E+01  0.3648227E+06  0.2927990E+01  0.2648559E+06 -0.2889430E+01  0.3324816E+05  0.3081878E+01  0.2415771E+06  0.2292127E+00  0.3788878E+06  0.2907305E+01  0.4179612E+06 -0.1501377E+01
