VARIABLES="w (rad/s)"
"abs(F   1   1)" "angle(F   1   1)"
"abs(F   1   2)" "angle(F   1   2)"
"abs(F   1   3)" "angle(F   1   3)"
"abs(F   1   4)" "angle(F   1   4)"
"abs(F   1   5)" "angle(F   1   5)"
"abs(F   1   6)" "angle(F   1   6)"
Zone t="FKforce - beta =  30.000",I=    40,F=POINT
  0.5000000E-01  0.1516640E+05 -0.3141592E+01  0.8756323E+04  0.3141584E+01  0.9798545E+06 -0.1570796E+01  0.1451577E+05 -0.2758315E-04  0.2514232E+05 -0.3141588E+01  0.1936040E+00 -0.1573003E+01
  0.1000000E+00  0.3035220E+05  0.3141592E+01  0.1752387E+05 -0.3141592E+01  0.9764209E+06 -0.1570796E+01  0.2902825E+05 -0.3209427E-04  0.5028056E+05 -0.3141592E+01  0.1449596E-01  0.1231985E+01
  0.1500000E+00  0.4557736E+05  0.3141593E+01  0.2631414E+05 -0.3141592E+01  0.9707042E+06 -0.1570796E+01  0.4353444E+05  0.8479278E-05  0.7541119E+05  0.3141591E+01  0.1958921E+00 -0.1512265E+01
  0.2000000E+00  0.6086272E+05 -0.3141593E+01  0.3513919E+05 -0.3141593E+01  0.9627167E+06 -0.1570796E+01  0.5803179E+05  0.1686172E-04  0.1005316E+06  0.3141592E+01  0.5290724E+00 -0.1579420E+01
  0.2500000E+00  0.7623066E+05  0.3141593E+01  0.4401192E+05  0.3141592E+01  0.9524732E+06 -0.1570796E+01  0.7251862E+05 -0.3770583E-06  0.1256408E+06 -0.3141592E+01  0.1704967E+01 -0.1574412E+01
  0.3000000E+00  0.9170538E+05  0.3141593E+01  0.5294641E+05 -0.3141592E+01  0.9399961E+06 -0.1570796E+01  0.8699438E+05  0.7857907E-06  0.1507398E+06 -0.3141592E+01  0.3632324E+01 -0.1570469E+01
  0.3500000E+00  0.1073134E+06  0.3141593E+01  0.6195784E+05  0.3141593E+01  0.9253133E+06 -0.1570796E+01  0.1014594E+06  0.1058767E-05  0.1758317E+06  0.3141592E+01  0.6840944E+01 -0.1570009E+01
  0.4000000E+00  0.1230839E+06 -0.3141592E+01  0.7106325E+05 -0.3141593E+01  0.9084605E+06 -0.1570796E+01  0.1159159E+06 -0.3420448E-05  0.2009231E+06  0.3141593E+01  0.1196313E+02 -0.1570980E+01
  0.4500000E+00  0.1390489E+06  0.3141593E+01  0.8028094E+05 -0.3141593E+01  0.8894825E+06 -0.1570796E+01  0.1303671E+06  0.8839224E-06  0.2260231E+06 -0.3141592E+01  0.2023889E+02 -0.1570639E+01
  0.5000000E+00  0.1552426E+06  0.3141593E+01  0.8963084E+05 -0.3141593E+01  0.8684361E+06 -0.1570796E+01  0.1448178E+06 -0.2198344E-05  0.2511432E+06 -0.3141592E+01  0.3268079E+02 -0.1570336E+01
  0.5500000E+00  0.1717021E+06  0.3141593E+01  0.9913431E+05 -0.3141593E+01  0.8453900E+06 -0.1570796E+01  0.1592736E+06 -0.9687539E-06  0.2762985E+06  0.3141593E+01  0.5090162E+02 -0.1571108E+01
  0.6000000E+00  0.1884643E+06  0.3141593E+01  0.1088127E+06 -0.3141592E+01  0.8204284E+06 -0.1570796E+01  0.1737399E+06 -0.1022991E-05  0.3015038E+06 -0.3141593E+01  0.7738843E+02 -0.1570651E+01
  0.6500000E+00  0.2055650E+06  0.3141593E+01  0.1186866E+06 -0.3141592E+01  0.7936571E+06 -0.1570796E+01  0.1882208E+06 -0.9027795E-06  0.3267726E+06 -0.3141592E+01  0.1157704E+03 -0.1571013E+01
  0.7000000E+00  0.2230339E+06  0.3141593E+01  0.1287736E+06 -0.3141593E+01  0.7652012E+06 -0.1570796E+01  0.2027156E+06 -0.4335661E-06  0.3521127E+06  0.3141593E+01  0.1702682E+03 -0.1570655E+01
  0.7500001E+00  0.2408904E+06 -0.3141593E+01  0.1390847E+06  0.3141593E+01  0.7352110E+06 -0.1570796E+01  0.2172168E+06  0.1991637E-05  0.3775201E+06  0.3141593E+01  0.2472979E+03 -0.1570732E+01
  0.8000000E+00  0.2591336E+06 -0.3141593E+01  0.1496192E+06  0.3141593E+01  0.7038644E+06 -0.1570796E+01  0.2317023E+06 -0.8050134E-06  0.4029692E+06 -0.3141593E+01  0.3552152E+03 -0.1570740E+01
  0.8500000E+00  0.2777342E+06  0.3141593E+01  0.1603607E+06 -0.3141592E+01  0.6713644E+06 -0.1570796E+01  0.2461316E+06 -0.6625966E-06  0.4284028E+06 -0.3141593E+01  0.5061731E+03 -0.1570792E+01
  0.9000000E+00  0.2966224E+06 -0.3141593E+01  0.1712690E+06 -0.3141593E+01  0.6379410E+06 -0.1570796E+01  0.2604372E+06  0.8624318E-07  0.4537200E+06 -0.3141593E+01  0.7160367E+03 -0.1570834E+01
  0.9500000E+00  0.3156793E+06  0.3141593E+01  0.1822754E+06 -0.3141593E+01  0.6038402E+06 -0.1570796E+01  0.2745203E+06  0.6474361E-06  0.4787658E+06 -0.3141593E+01  0.1005142E+04 -0.1570805E+01
  0.1000000E+01  0.3347286E+06  0.3141593E+01  0.1932784E+06  0.3141593E+01  0.5693200E+06 -0.1570796E+01  0.2882458E+06  0.2913637E-06  0.5033229E+06  0.3141593E+01  0.1400333E+04 -0.1570783E+01
  0.1050000E+01  0.3535375E+06  0.3141593E+01  0.2041435E+06 -0.3141593E+01  0.5346380E+06 -0.1570796E+01  0.3014447E+06 -0.1632762E-05  0.5271138E+06  0.3141593E+01  0.1935632E+04 -0.1570790E+01
  0.1100000E+01  0.3718256E+06 -0.3141593E+01  0.2147092E+06  0.3141593E+01  0.5000405E+06 -0.1570796E+01  0.3139208E+06 -0.4915153E-06  0.5498129E+06  0.3141593E+01  0.2652082E+04 -0.1570778E+01
  0.1150000E+01  0.3892775E+06  0.3141593E+01  0.2247935E+06 -0.3141592E+01  0.4657552E+06 -0.1570796E+01  0.3254614E+06 -0.2760504E-06  0.5710609E+06  0.3141593E+01  0.3598831E+04 -0.1570783E+01
  0.1200000E+01  0.4055628E+06  0.3141593E+01  0.2342061E+06  0.3141593E+01  0.4319881E+06 -0.1570796E+01  0.3358531E+06  0.2776861E-06  0.5904923E+06 -0.3141593E+01  0.4832042E+04 -0.1570805E+01
  0.1250000E+01  0.4203568E+06  0.3141593E+01  0.2427591E+06  0.3141593E+01  0.3989202E+06 -0.1570796E+01  0.3448933E+06 -0.4530387E-07  0.6077559E+06 -0.3141593E+01  0.6417266E+04 -0.1570798E+01
  0.1300000E+01  0.4333519E+06 -0.3141593E+01  0.2502752E+06 -0.3141593E+01  0.3667131E+06 -0.1570796E+01  0.3524023E+06  0.6539934E-06  0.6225312E+06 -0.3141593E+01  0.8425945E+04 -0.1570802E+01
  0.1350000E+01  0.4442714E+06  0.3141593E+01  0.2565946E+06  0.3141593E+01  0.3355078E+06 -0.1570796E+01  0.3582276E+06  0.4429904E-07  0.6345406E+06  0.3141593E+01  0.1093700E+05 -0.1570803E+01
  0.1400000E+01  0.4528734E+06  0.3141593E+01  0.2615779E+06  0.3141593E+01  0.3054339E+06 -0.1570796E+01  0.3622486E+06  0.8761465E-07  0.6435546E+06  0.3141593E+01  0.1403579E+05 -0.1570796E+01
  0.1450000E+01  0.4589565E+06  0.3141593E+01  0.2651080E+06 -0.3141593E+01  0.2766029E+06 -0.1570796E+01  0.3643750E+06 -0.7035270E-07  0.6493931E+06 -0.3141593E+01  0.1781300E+05 -0.1570794E+01
  0.1500000E+01  0.4623570E+06  0.3141593E+01  0.2670914E+06 -0.3141593E+01  0.2491162E+06 -0.1570796E+01  0.3645470E+06  0.1530286E-06  0.6519188E+06 -0.3141593E+01  0.2236312E+05 -0.1570795E+01
  0.1550000E+01  0.4629536E+06 -0.3141593E+01  0.2674570E+06 -0.3141593E+01  0.2230606E+06 -0.1570796E+01  0.3627315E+06  0.2906154E-06  0.6510399E+06 -0.3141593E+01  0.2778326E+05 -0.1570795E+01
  0.1600000E+01  0.4606642E+06  0.3141593E+01  0.2661574E+06 -0.3141593E+01  0.1985088E+06 -0.1570796E+01  0.3589203E+06 -0.1476052E-06  0.6467040E+06 -0.3141593E+01  0.3417084E+05 -0.1570795E+01
  0.1650000E+01  0.4554476E+06 -0.3141593E+01  0.2631683E+06  0.3141593E+01  0.1755180E+06 -0.1570796E+01  0.3531281E+06 -0.9679119E-07  0.6388940E+06  0.3141593E+01  0.4162129E+05 -0.1570796E+01
  0.1700000E+01  0.4473032E+06 -0.3141593E+01  0.2584892E+06  0.3141593E+01  0.1541273E+06 -0.1570796E+01  0.3453899E+06 -0.1141571E-06  0.6276288E+06  0.3141593E+01  0.5022538E+05 -0.1570796E+01
  0.1750000E+01  0.4362738E+06  0.3141593E+01  0.2521441E+06  0.3141593E+01  0.1343619E+06 -0.1570796E+01  0.3357623E+06  0.3137537E-06  0.6129621E+06  0.3141593E+01  0.6006454E+05 -0.1570797E+01
  0.1800000E+01  0.4224413E+06 -0.3141593E+01  0.2441797E+06 -0.3141593E+01  0.1162259E+06 -0.1570796E+01  0.3243175E+06  0.5495314E-07  0.5949780E+06  0.3141593E+01  0.7120992E+05 -0.1570796E+01
  0.1850000E+01  0.4059315E+06 -0.3141593E+01  0.2346682E+06 -0.3141593E+01  0.9970855E+05 -0.1570796E+01  0.3111477E+06 -0.1326051E-06  0.5737969E+06 -0.3141593E+01  0.8371605E+05 -0.1570796E+01
  0.1900000E+01  0.3869105E+06 -0.3141593E+01  0.2237049E+06 -0.3141593E+01  0.8478159E+05 -0.1570796E+01  0.2963619E+06 -0.9391232E-07  0.5495712E+06  0.3141593E+01  0.9761830E+05 -0.1570797E+01
  0.1950000E+01  0.3655858E+06 -0.3141593E+01  0.2114086E+06 -0.3141593E+01  0.7140196E+05 -0.1570796E+01  0.2800875E+06 -0.3660966E-07  0.5224917E+06  0.3141593E+01  0.1129278E+06 -0.1570796E+01
  0.2000000E+01  0.3422019E+06  0.3141593E+01  0.1979202E+06 -0.3141593E+01  0.5951192E+05 -0.1570796E+01  0.2624682E+06 -0.1934758E-06  0.4927827E+06 -0.3141593E+01  0.1296286E+06 -0.1570796E+01
