VARIABLES="X" "Y" "Z" "Module" "Phase" "Real" "Imag" "Re(NVEL)" "Im(NVEL)"
 ZONE t="Body",N=         768 , E=         588  , F=FEPOINT,ET=QUADRILATERAL
  -0.5000000E+01   0.0000000E+00  -0.5000000E+01   0.6674784E+00   0.1180267E+01   0.2540945E+00   0.6172223E+00  -0.2589133E+00
   0.3174255E-01
  -0.5000000E+01   0.0000000E+00  -0.4285714E+01   0.1137144E+01   0.1211553E+01   0.3997807E+00   0.1064553E+01  -0.3464504E+00
   0.4247452E-01
  -0.5000000E+01   0.0000000E+00  -0.3571429E+01   0.1654302E+01   0.1218569E+01   0.5707160E+00   0.1552740E+01  -0.4635835E+00
   0.5683494E-01
  -0.5000000E+01   0.0000000E+00  -0.2857143E+01   0.2298085E+01   0.1223563E+01   0.7820323E+00   0.2160931E+01  -0.6203196E+00
   0.7605065E-01
  -0.5000000E+01   0.0000000E+00  -0.2142857E+01   0.3132630E+01   0.1227884E+01   0.1053288E+01   0.2950246E+01  -0.8300471E+00
   0.1017631E+00
  -0.5000000E+01   0.0000000E+00  -0.1428571E+01   0.4244687E+01   0.1228710E+01   0.1423894E+01   0.3998737E+01  -0.1110684E+01
   0.1361689E+00
  -0.5000000E+01   0.0000000E+00  -0.7142859E+00   0.5760376E+01   0.1233597E+01   0.1905792E+01   0.5435981E+01  -0.1486202E+01
   0.1822070E+00
  -0.5000000E+01   0.0000000E+00   0.0000000E+00   0.5760376E+01   0.1233597E+01   0.1905792E+01   0.5435981E+01  -0.1486202E+01
   0.1822070E+00
  -0.5000000E+01   0.7142857E+00  -0.5000000E+01   0.7370223E+00   0.1268652E+01   0.2193140E+00   0.7036358E+00  -0.2607791E+00
  -0.6164346E-02
  -0.5000000E+01   0.7142857E+00  -0.4285714E+01   0.1241459E+01   0.1299737E+01   0.3324029E+00   0.1196131E+01  -0.3489469E+00
  -0.8248474E-02
  -0.5000000E+01   0.7142857E+00  -0.3571429E+01   0.1798664E+01   0.1306420E+01   0.4700044E+00   0.1736170E+01  -0.4669241E+00
  -0.1103724E-01
  -0.5000000E+01   0.7142857E+00  -0.2857143E+01   0.2493488E+01   0.1310743E+01   0.6411547E+00   0.2409648E+01  -0.6247896E+00
  -0.1476890E-01
  -0.5000000E+01   0.7142857E+00  -0.2142857E+01   0.3395397E+01   0.1314416E+01   0.8610081E+00   0.3284415E+01  -0.8360284E+00
  -0.1976220E-01
  -0.5000000E+01   0.7142857E+00  -0.1428571E+01   0.4596102E+01   0.1314749E+01   0.1164003E+01   0.4446263E+01  -0.1118687E+01
  -0.2644375E-01
  -0.5000000E+01   0.7142857E+00  -0.7142859E+00   0.6221965E+01   0.1317864E+01   0.1557009E+01   0.6023999E+01  -0.1496911E+01
  -0.3538427E-01
  -0.5000000E+01   0.7142857E+00   0.0000000E+00   0.6221965E+01   0.1317864E+01   0.1557009E+01   0.6023999E+01  -0.1496911E+01
  -0.3538427E-01
  -0.5000000E+01   0.1428571E+01  -0.5000000E+01   0.7756924E+00   0.1344158E+01   0.1743003E+00   0.7558559E+00  -0.2571243E+00
  -0.4394075E-01
  -0.5000000E+01   0.1428571E+01  -0.4285714E+01   0.1296021E+01   0.1376553E+01   0.2501634E+00   0.1271648E+01  -0.3440565E+00
  -0.5879685E-01
  -0.5000000E+01   0.1428571E+01  -0.3571429E+01   0.1871765E+01   0.1383568E+01   0.3484029E+00   0.1839054E+01  -0.4603803E+00
  -0.7867578E-01
  -0.5000000E+01   0.1428571E+01  -0.2857143E+01   0.2589844E+01   0.1387563E+01   0.4718961E+00   0.2546489E+01  -0.6160334E+00
  -0.1052758E+00
  -0.5000000E+01   0.1428571E+01  -0.2142857E+01   0.3523150E+01   0.1390760E+01   0.6308727E+00   0.3466207E+01  -0.8243118E+00
  -0.1408691E+00
  -0.5000000E+01   0.1428571E+01  -0.1428571E+01   0.4765137E+01   0.1390898E+01   0.8526244E+00   0.4688237E+01  -0.1103009E+01
  -0.1884966E+00
  -0.5000000E+01   0.1428571E+01  -0.7142859E+00   0.6433775E+01   0.1392855E+01   0.1138802E+01   0.6332187E+01  -0.1475932E+01
  -0.2522265E+00
  -0.5000000E+01   0.1428571E+01   0.0000000E+00   0.6433775E+01   0.1392855E+01   0.1138802E+01   0.6332187E+01  -0.1475932E+01
  -0.2522265E+00
  -0.5000000E+01   0.2142857E+01  -0.5000000E+01   0.7765359E+00   0.1414002E+01   0.1212584E+00   0.7670101E+00  -0.2480266E+00
  -0.8078697E-01
  -0.5000000E+01   0.2142857E+01  -0.4285714E+01   0.1289406E+01   0.1448460E+01   0.1573484E+00   0.1279769E+01  -0.3318829E+00
  -0.1081006E+00
  -0.5000000E+01   0.2142857E+01  -0.3571429E+01   0.1856997E+01   0.1456147E+01   0.2124365E+00   0.1844806E+01  -0.4440908E+00
  -0.1446488E+00
  -0.5000000E+01   0.2142857E+01  -0.2857143E+01   0.2564518E+01   0.1459989E+01   0.2835866E+00   0.2548790E+01  -0.5942364E+00
  -0.1935541E+00
  -0.5000000E+01   0.2142857E+01  -0.2142857E+01   0.3484071E+01   0.1462870E+01   0.3752950E+00   0.3463799E+01  -0.7951453E+00
  -0.2589940E+00
  -0.5000000E+01   0.2142857E+01  -0.1428571E+01   0.4710504E+01   0.1462982E+01   0.5068750E+00   0.4683154E+01  -0.1063982E+01
  -0.3465591E+00
  -0.5000000E+01   0.2142857E+01  -0.7142859E+00   0.6345689E+01   0.1464199E+01   0.6751526E+00   0.6309670E+01  -0.1423710E+01
  -0.4637294E+00
  -0.5000000E+01   0.2142857E+01   0.0000000E+00   0.6345689E+01   0.1464199E+01   0.6751526E+00   0.6309670E+01  -0.1423710E+01
  -0.4637294E+00
  -0.5000000E+01   0.2857143E+01  -0.5000000E+01   0.7342924E+00   0.1486340E+01   0.6194177E-01   0.7316752E+00  -0.2336783E+00
  -0.1159230E+00
  -0.5000000E+01   0.2857143E+01  -0.4285714E+01   0.1212260E+01   0.1523011E+01   0.5790663E-01   0.1210876E+01  -0.3126836E+00
  -0.1551159E+00
  -0.5000000E+01   0.2857143E+01  -0.3571429E+01   0.1740592E+01   0.1531556E+01   0.6828335E-01   0.1739253E+01  -0.4184003E+00
  -0.2075598E+00
  -0.5000000E+01   0.2857143E+01  -0.2857143E+01   0.2397596E+01   0.1535463E+01   0.8469745E-01   0.2396100E+01  -0.5598601E+00
  -0.2777351E+00
  -0.5000000E+01   0.2857143E+01  -0.2142857E+01   0.3251205E+01   0.1538249E+01   0.1057981E+00   0.3249483E+01  -0.7491466E+00
  -0.3716362E+00
  -0.5000000E+01   0.2857143E+01  -0.1428571E+01   0.4393230E+01   0.1538515E+01   0.1417950E+00   0.4390942E+01  -0.1002431E+01
  -0.4972854E+00
  -0.5000000E+01   0.2857143E+01  -0.7142859E+00   0.5913211E+01   0.1538986E+01   0.1880676E+00   0.5910220E+01  -0.1341349E+01
  -0.6654156E+00
  -0.5000000E+01   0.2857143E+01   0.0000000E+00   0.5913211E+01   0.1538986E+01   0.1880676E+00   0.5910220E+01  -0.1341349E+01
  -0.6654156E+00
  -0.5000000E+01   0.3571429E+01  -0.5000000E+01   0.6431519E+00   0.1575616E+01  -0.3099903E-02   0.6431445E+00  -0.2143834E+00
  -0.1486051E+00
  -0.5000000E+01   0.3571429E+01  -0.4285714E+01   0.1052329E+01   0.1614054E+01  -0.4550715E-01   0.1051345E+01  -0.2868651E+00
  -0.1988476E+00
  -0.5000000E+01   0.3571429E+01  -0.3571429E+01   0.1505233E+01   0.1623453E+01  -0.7922348E-01   0.1503147E+01  -0.3838528E+00
  -0.2660770E+00
  -0.5000000E+01   0.3571429E+01  -0.2857143E+01   0.2068585E+01   0.1627423E+01  -0.1170737E+00   0.2065269E+01  -0.5136322E+00
  -0.3560367E+00
  -0.5000000E+01   0.3571429E+01  -0.2142857E+01   0.2800156E+01   0.1630204E+01  -0.1662529E+00   0.2795216E+01  -0.6872891E+00
  -0.4764113E+00
  -0.5000000E+01   0.3571429E+01  -0.1428571E+01   0.3780962E+01   0.1630904E+01  -0.2271286E+00   0.3774134E+01  -0.9196596E+00
  -0.6374846E+00
  -0.5000000E+01   0.3571429E+01  -0.7142859E+00   0.5066882E+01   0.1631912E+01  -0.3094758E+00   0.5057422E+01  -0.1230593E+01
  -0.8530157E+00
  -0.5000000E+01   0.3571429E+01   0.0000000E+00   0.5066882E+01   0.1631912E+01  -0.3094758E+00   0.5057422E+01  -0.1230593E+01
  -0.8530157E+00
  -0.5000000E+01   0.4285714E+01  -0.5000000E+01   0.4781502E+00   0.1744091E+01  -0.8244693E-01   0.4709885E+00  -0.1905501E+00
  -0.1781414E+00
  -0.5000000E+01   0.4285714E+01  -0.4285714E+01   0.7619089E+00   0.1781988E+01  -0.1597150E+00   0.7449808E+00  -0.2549740E+00
  -0.2383699E+00
  -0.5000000E+01   0.4285714E+01  -0.3571429E+01   0.1083256E+01   0.1792556E+01  -0.2382581E+00   0.1056730E+01  -0.3411795E+00
  -0.3189616E+00
  -0.5000000E+01   0.4285714E+01  -0.2857143E+01   0.1485615E+01   0.1796792E+01  -0.3328924E+00   0.1447838E+01  -0.4565311E+00
  -0.4268014E+00
  -0.5000000E+01   0.4285714E+01  -0.2142857E+01   0.2009032E+01   0.1799623E+01  -0.4557193E+00   0.1956663E+01  -0.6108825E+00
  -0.5711012E+00
  -0.5000000E+01   0.4285714E+01  -0.1428571E+01   0.2716302E+01   0.1800382E+01  -0.6181587E+00   0.2645029E+01  -0.8174201E+00
  -0.7641889E+00
  -0.5000000E+01   0.4285714E+01  -0.7142859E+00   0.3630165E+01   0.1802170E+01  -0.8324499E+00   0.3533430E+01  -0.1093787E+01
  -0.1022558E+01
  -0.5000000E+01   0.4285714E+01   0.0000000E+00   0.3630165E+01   0.1802170E+01  -0.8324499E+00   0.3533430E+01  -0.1093787E+01
  -0.1022558E+01
  -0.5000000E+01   0.5000000E+01  -0.5000000E+01   0.4781502E+00   0.1744091E+01  -0.8244693E-01   0.4709885E+00  -0.1905501E+00
  -0.1781414E+00
  -0.5000000E+01   0.5000000E+01  -0.4285714E+01   0.7619089E+00   0.1781988E+01  -0.1597150E+00   0.7449808E+00  -0.2549740E+00
  -0.2383699E+00
  -0.5000000E+01   0.5000000E+01  -0.3571429E+01   0.1083256E+01   0.1792556E+01  -0.2382581E+00   0.1056730E+01  -0.3411795E+00
  -0.3189616E+00
  -0.5000000E+01   0.5000000E+01  -0.2857143E+01   0.1485615E+01   0.1796792E+01  -0.3328924E+00   0.1447838E+01  -0.4565311E+00
  -0.4268014E+00
  -0.5000000E+01   0.5000000E+01  -0.2142857E+01   0.2009032E+01   0.1799623E+01  -0.4557193E+00   0.1956663E+01  -0.6108825E+00
  -0.5711012E+00
  -0.5000000E+01   0.5000000E+01  -0.1428571E+01   0.2716302E+01   0.1800382E+01  -0.6181587E+00   0.2645029E+01  -0.8174201E+00
  -0.7641889E+00
  -0.5000000E+01   0.5000000E+01  -0.7142859E+00   0.3630165E+01   0.1802170E+01  -0.8324499E+00   0.3533430E+01  -0.1093787E+01
  -0.1022558E+01
  -0.5000000E+01   0.5000000E+01   0.0000000E+00   0.3630165E+01   0.1802170E+01  -0.8324499E+00   0.3533430E+01  -0.1093787E+01
  -0.1022558E+01
  -0.5000000E+01   0.5000000E+01  -0.5000000E+01   0.1407594E+00   0.2702304E+01  -0.1273950E+00   0.5986438E-01   0.8751976E-01
   0.1225624E+00
  -0.5000000E+01   0.5000000E+01  -0.4285714E+01   0.2611709E+00   0.2781730E+01  -0.2444417E+00   0.9197015E-01   0.1171097E+00
   0.1640000E+00
  -0.5000000E+01   0.5000000E+01  -0.3571429E+01   0.3866793E+00   0.2790885E+01  -0.3631422E+00   0.1328483E+00   0.1567039E+00
   0.2194475E+00
  -0.5000000E+01   0.5000000E+01  -0.2857143E+01   0.5378745E+00   0.2793707E+01  -0.5056534E+00   0.1833673E+00   0.2096849E+00
   0.2936420E+00
  -0.5000000E+01   0.5000000E+01  -0.2142857E+01   0.7324809E+00   0.2793899E+01  -0.6886500E+00   0.2495787E+00   0.2805785E+00
   0.3929211E+00
  -0.5000000E+01   0.5000000E+01  -0.1428571E+01   0.9963903E+00   0.2774490E+01  -0.9300018E+00   0.3576175E+00   0.3754413E+00
   0.5257667E+00
  -0.5000000E+01   0.5000000E+01  -0.7142859E+00   0.1345612E+01   0.2721498E+01  -0.1228612E+01   0.5488030E+00   0.5023766E+00
   0.7035264E+00
  -0.5000000E+01   0.5000000E+01   0.0000000E+00   0.1345612E+01   0.2721498E+01  -0.1228612E+01   0.5488030E+00   0.5023766E+00
   0.7035264E+00
  -0.4285714E+01   0.5000000E+01  -0.5000000E+01   0.9909777E-01  -0.1682848E+01  -0.1108082E-01  -0.9847631E-01   0.5416355E-01
   0.1405260E+00
  -0.4285714E+01   0.5000000E+01  -0.4285714E+01   0.1937191E+00  -0.2156914E+01  -0.1071520E+00  -0.1613863E+00   0.7247592E-01
   0.1880370E+00
  -0.4285714E+01   0.5000000E+01  -0.3571429E+01   0.2929553E+00  -0.2258793E+01  -0.1860240E+00  -0.2263137E+00   0.9697966E-01
   0.2516113E+00
  -0.4285714E+01   0.5000000E+01  -0.2857143E+01   0.4112647E+00  -0.2293042E+01  -0.2718753E+00  -0.3085814E+00   0.1297682E+00
   0.3366803E+00
  -0.4285714E+01   0.5000000E+01  -0.2142857E+01   0.5609770E+00  -0.2308789E+01  -0.3774278E+00  -0.4150223E+00   0.1736422E+00
   0.4505105E+00
  -0.4285714E+01   0.5000000E+01  -0.1428571E+01   0.7385668E+00  -0.2336001E+01  -0.5115941E+00  -0.5326841E+00   0.2323502E+00
   0.6028268E+00
  -0.4285714E+01   0.5000000E+01  -0.7142859E+00   0.9165524E+00  -0.2387159E+01  -0.6678547E+00  -0.6277248E+00   0.3109069E+00
   0.8066403E+00
  -0.4285714E+01   0.5000000E+01   0.0000000E+00   0.9165524E+00  -0.2387159E+01  -0.6678547E+00  -0.6277248E+00   0.3109069E+00
   0.8066403E+00
  -0.3571429E+01   0.5000000E+01  -0.5000000E+01   0.2038677E+00  -0.9576521E+00   0.1173140E+00  -0.1667317E+00   0.1737976E-01
   0.1495967E+00
  -0.3571429E+01   0.5000000E+01  -0.4285714E+01   0.2924953E+00  -0.1336821E+01   0.6781405E-01  -0.2845255E+00   0.2325576E-01
   0.2001745E+00
  -0.3571429E+01   0.5000000E+01  -0.3571429E+01   0.4097801E+00  -0.1450730E+01   0.4908269E-01  -0.4068300E+00   0.3111841E-01
   0.2678525E+00
  -0.3571429E+01   0.5000000E+01  -0.2857143E+01   0.5608460E+00  -0.1495031E+01   0.4245206E-01  -0.5592371E+00   0.4163945E-01
   0.3584125E+00
  -0.3571429E+01   0.5000000E+01  -0.2142857E+01   0.7579688E+00  -0.1514404E+01   0.4272075E-01  -0.7567639E+00   0.5571757E-01
   0.4795903E+00
  -0.3571429E+01   0.5000000E+01  -0.1428571E+01   0.9949793E+00  -0.1518587E+01   0.5192411E-01  -0.9936235E+00   0.7455552E-01
   0.6417385E+00
  -0.3571429E+01   0.5000000E+01  -0.7142859E+00   0.1248417E+01  -0.1504619E+01   0.8255690E-01  -0.1245684E+01   0.9976245E-01
   0.8587078E+00
  -0.3571429E+01   0.5000000E+01   0.0000000E+00   0.1248417E+01  -0.1504619E+01   0.8255690E-01  -0.1245684E+01   0.9976245E-01
   0.8587078E+00
  -0.2857143E+01   0.5000000E+01  -0.5000000E+01   0.2996251E+00  -0.6506569E+00   0.2384075E+00  -0.1814857E+00  -0.2050390E-01
   0.1492006E+00
  -0.2857143E+01   0.5000000E+01  -0.4285714E+01   0.4093869E+00  -0.9311761E+00   0.2443593E+00  -0.3284603E+00  -0.2743615E-01
   0.1996445E+00
  -0.2857143E+01   0.5000000E+01  -0.3571429E+01   0.5599360E+00  -0.1023542E+01   0.2913596E+00  -0.4781610E+00  -0.3671218E-01
   0.2671433E+00
  -0.2857143E+01   0.5000000E+01  -0.2857143E+01   0.7587783E+00  -0.1063294E+01   0.3687629E+00  -0.6631429E+00  -0.4912444E-01
   0.3574635E+00
  -0.2857143E+01   0.5000000E+01  -0.2142857E+01   0.1022095E+01  -0.1081632E+01   0.4802706E+00  -0.9022294E+00  -0.6573321E-01
   0.4783205E+00
  -0.2857143E+01   0.5000000E+01  -0.1428571E+01   0.1351403E+01  -0.1078214E+01   0.6390827E+00  -0.1190741E+01  -0.8795743E-01
   0.6400393E+00
  -0.2857143E+01   0.5000000E+01  -0.7142859E+00   0.1731040E+01  -0.1045896E+01   0.8674709E+00  -0.1497997E+01  -0.1176955E+00
   0.8564341E+00
  -0.2857143E+01   0.5000000E+01   0.0000000E+00   0.1731040E+01  -0.1045896E+01   0.8674709E+00  -0.1497997E+01  -0.1176955E+00
   0.8564341E+00
  -0.2142857E+01   0.5000000E+01  -0.5000000E+01   0.3717188E+00  -0.4228550E+00   0.3389782E+00  -0.1525407E+00  -0.5709000E-01
   0.1393627E+00
  -0.2142857E+01   0.5000000E+01  -0.4285714E+01   0.5042626E+00  -0.6540897E+00   0.4001839E+00  -0.3068121E+00  -0.7639178E-01
   0.1864804E+00
  -0.2142857E+01   0.5000000E+01  -0.3571429E+01   0.6848387E+00  -0.7325155E+00   0.5091739E+00  -0.4579804E+00  -0.1022195E+00
   0.2495285E+00
  -0.2142857E+01   0.5000000E+01  -0.2857143E+01   0.9239012E+00  -0.7679285E+00   0.6646094E+00  -0.6417848E+00  -0.1367795E+00
   0.3338933E+00
  -0.2142857E+01   0.5000000E+01  -0.2142857E+01   0.1242014E+01  -0.7849339E+00   0.8786445E+00  -0.8778290E+00  -0.1830241E+00
   0.4467812E+00
  -0.2142857E+01   0.5000000E+01  -0.1428571E+01   0.1649785E+01  -0.7789307E+00   0.1174095E+01  -0.1159005E+01  -0.2449041E+00
   0.5978367E+00
  -0.2142857E+01   0.5000000E+01  -0.7142859E+00   0.2147125E+01  -0.7434738E+00   0.1580546E+01  -0.1453280E+01  -0.3277052E+00
   0.7999631E+00
  -0.2142857E+01   0.5000000E+01   0.0000000E+00   0.2147125E+01  -0.7434738E+00   0.1580546E+01  -0.1453280E+01  -0.3277052E+00
   0.7999631E+00
  -0.1428571E+01   0.5000000E+01  -0.5000000E+01   0.4177635E+00  -0.2118021E+00   0.4084280E+00  -0.8782309E-01  -0.9006331E-01
   0.1207056E+00
  -0.1428571E+01   0.5000000E+01  -0.4285714E+01   0.5663550E+00  -0.4178035E+00   0.5176386E+00  -0.2298007E+00  -0.1205132E+00
   0.1615154E+00
  -0.1428571E+01   0.5000000E+01  -0.3571429E+01   0.7669374E+00  -0.4885185E+00   0.6772281E+00  -0.3599377E+00  -0.1612581E+00
   0.2161230E+00
  -0.1428571E+01   0.5000000E+01  -0.2857143E+01   0.1032251E+01  -0.5213432E+00   0.8951176E+00  -0.5141079E+00  -0.2157789E+00
   0.2891935E+00
  -0.1428571E+01   0.5000000E+01  -0.2142857E+01   0.1385793E+01  -0.5370421E+00   0.1190709E+01  -0.7089672E+00  -0.2887329E+00
   0.3869686E+00
  -0.1428571E+01   0.5000000E+01  -0.1428571E+01   0.1846798E+01  -0.5303797E+00   0.1593075E+01  -0.9342227E+00  -0.3863526E+00
   0.5178016E+00
  -0.1428571E+01   0.5000000E+01  -0.7142859E+00   0.2429538E+01  -0.4949450E+00   0.2137981E+01  -0.1153990E+01  -0.5169770E+00
   0.6928683E+00
  -0.1428571E+01   0.5000000E+01   0.0000000E+00   0.2429538E+01  -0.4949450E+00   0.2137981E+01  -0.1153990E+01  -0.5169770E+00
   0.6928683E+00
  -0.7142859E+00   0.5000000E+01  -0.5000000E+01   0.4387269E+00   0.7234208E-02   0.4387154E+00   0.3173814E-02  -0.1173372E+00
   0.9440991E-01
  -0.7142859E+00   0.5000000E+01  -0.4285714E+01   0.5932497E+00  -0.1866306E+00   0.5829480E+00  -0.1100769E+00  -0.1570082E+00
   0.1263293E+00
  -0.7142859E+00   0.5000000E+01  -0.3571429E+01   0.8011560E+00  -0.2536466E+00   0.7755221E+00  -0.2010386E+00  -0.2100918E+00
   0.1690406E+00
  -0.7142859E+00   0.5000000E+01  -0.2857143E+01   0.1076118E+01  -0.2850804E+00   0.1032685E+01  -0.3026416E+00  -0.2811232E+00
   0.2261927E+00
  -0.7142859E+00   0.5000000E+01  -0.2142857E+01   0.1443313E+01  -0.3001440E+00   0.1378788E+01  -0.4267266E+00  -0.3761698E+00
   0.3026675E+00
  -0.7142859E+00   0.5000000E+01  -0.1428571E+01   0.1927938E+01  -0.2931718E+00   0.1845677E+01  -0.5571551E+00  -0.5033517E+00
   0.4049986E+00
  -0.7142859E+00   0.5000000E+01  -0.7142859E+00   0.2557884E+01  -0.2579919E+00   0.2473229E+01  -0.6526171E+00  -0.6735330E+00
   0.5419270E+00
  -0.7142859E+00   0.5000000E+01   0.0000000E+00   0.2557884E+01  -0.2579919E+00   0.2473229E+01  -0.6526171E+00  -0.6735330E+00
   0.5419270E+00
   0.0000000E+00   0.5000000E+01  -0.5000000E+01   0.4387269E+00   0.7234208E-02   0.4387154E+00   0.3173814E-02  -0.1173372E+00
   0.9440991E-01
   0.0000000E+00   0.5000000E+01  -0.4285714E+01   0.5932497E+00  -0.1866306E+00   0.5829480E+00  -0.1100769E+00  -0.1570082E+00
   0.1263293E+00
   0.0000000E+00   0.5000000E+01  -0.3571429E+01   0.8011560E+00  -0.2536466E+00   0.7755221E+00  -0.2010386E+00  -0.2100918E+00
   0.1690406E+00
   0.0000000E+00   0.5000000E+01  -0.2857143E+01   0.1076118E+01  -0.2850804E+00   0.1032685E+01  -0.3026416E+00  -0.2811232E+00
   0.2261927E+00
   0.0000000E+00   0.5000000E+01  -0.2142857E+01   0.1443313E+01  -0.3001440E+00   0.1378788E+01  -0.4267266E+00  -0.3761698E+00
   0.3026675E+00
   0.0000000E+00   0.5000000E+01  -0.1428571E+01   0.1927938E+01  -0.2931718E+00   0.1845677E+01  -0.5571551E+00  -0.5033517E+00
   0.4049986E+00
   0.0000000E+00   0.5000000E+01  -0.7142859E+00   0.2557884E+01  -0.2579919E+00   0.2473229E+01  -0.6526171E+00  -0.6735330E+00
   0.5419270E+00
   0.0000000E+00   0.5000000E+01   0.0000000E+00   0.2557884E+01  -0.2579919E+00   0.2473229E+01  -0.6526171E+00  -0.6735330E+00
   0.5419270E+00
   0.0000000E+00   0.5000000E+01  -0.5000000E+01   0.4395117E+00   0.2541448E+00   0.4253940E+00   0.1105011E+00  -0.1371856E+00
   0.6213968E-01
   0.0000000E+00   0.5000000E+01  -0.4285714E+01   0.5889130E+00   0.6594286E-01   0.5876331E+00   0.3880647E-01  -0.1835673E+00
   0.8314873E-01
   0.0000000E+00   0.5000000E+01  -0.3571429E+01   0.7914578E+00   0.4743700E-03   0.7914578E+00   0.3754438E-03  -0.2456305E+00
   0.1112609E+00
   0.0000000E+00   0.5000000E+01  -0.2857143E+01   0.1060176E+01  -0.3041185E-01   0.1059686E+01  -0.3223694E-01  -0.3286773E+00
   0.1488779E+00
   0.0000000E+00   0.5000000E+01  -0.2142857E+01   0.1420300E+01  -0.4521588E-01   0.1418848E+01  -0.6419823E-01  -0.4398017E+00
   0.1992128E+00
   0.0000000E+00   0.5000000E+01  -0.1428571E+01   0.1900906E+01  -0.3803400E-01   0.1899531E+01  -0.7228163E-01  -0.5884975E+00
   0.2665662E+00
   0.0000000E+00   0.5000000E+01  -0.7142859E+00   0.2543020E+01  -0.3559804E-02   0.2543003E+01  -0.9052632E-02  -0.7874662E+00
   0.3566911E+00
   0.0000000E+00   0.5000000E+01   0.0000000E+00   0.2543020E+01  -0.3559804E-02   0.2543003E+01  -0.9052632E-02  -0.7874662E+00
   0.3566911E+00
   0.7142857E+00   0.5000000E+01  -0.5000000E+01   0.4298963E+00   0.5462156E+00   0.3673449E+00   0.2233127E+00  -0.1483526E+00
   0.2593712E-01
   0.7142857E+00   0.5000000E+01  -0.4285714E+01   0.5652544E+00   0.3645773E+00   0.5281028E+00   0.2015440E+00  -0.1985098E+00
   0.3470630E-01
   0.7142857E+00   0.5000000E+01  -0.3571429E+01   0.7531261E+00   0.3011276E+00   0.7192374E+00   0.2233751E+00  -0.2656249E+00
   0.4644033E-01
   0.7142857E+00   0.5000000E+01  -0.2857143E+01   0.1004356E+01   0.2709934E+00   0.9677029E+00   0.2688549E+00  -0.3554319E+00
   0.6214165E-01
   0.7142857E+00   0.5000000E+01  -0.2142857E+01   0.1343060E+01   0.2564366E+00   0.1299142E+01   0.3406475E+00  -0.4756019E+00
   0.8315149E-01
   0.7142857E+00   0.5000000E+01  -0.1428571E+01   0.1801122E+01   0.2636957E+00   0.1738863E+01   0.4694629E+00  -0.6364016E+00
   0.1112648E+00
   0.7142857E+00   0.5000000E+01  -0.7142859E+00   0.2431786E+01   0.2957508E+00   0.2326207E+01   0.7087639E+00  -0.8515665E+00
   0.1488830E+00
   0.7142857E+00   0.5000000E+01   0.0000000E+00   0.2431786E+01   0.2957508E+00   0.2326207E+01   0.7087639E+00  -0.8515665E+00
   0.1488830E+00
   0.1428571E+01   0.5000000E+01  -0.5000000E+01   0.4253492E+00   0.8912452E+00   0.2673081E+00   0.3308600E+00  -0.1501315E+00
  -0.1190681E-01
   0.1428571E+01   0.5000000E+01  -0.4285714E+01   0.5446066E+00   0.7282593E+00   0.4064585E+00   0.3624747E+00  -0.2008901E+00
  -0.1593244E-01
   0.1428571E+01   0.5000000E+01  -0.3571429E+01   0.7168825E+00   0.6720982E+00   0.5609728E+00   0.4463520E+00  -0.2688100E+00
  -0.2131911E-01
   0.1428571E+01   0.5000000E+01  -0.2857143E+01   0.9501080E+00   0.6452941E+00   0.7590631E+00   0.5714267E+00  -0.3596938E+00
  -0.2852703E-01
   0.1428571E+01   0.5000000E+01  -0.2142857E+01   0.1267139E+01   0.6318066E+00   0.1022533E+01   0.7483771E+00  -0.4813047E+00
  -0.3817191E-01
   0.1428571E+01   0.5000000E+01  -0.1428571E+01   0.1703104E+01   0.6386383E+00   0.1367436E+01   0.1015225E+01  -0.6440325E+00
  -0.5107772E-01
   0.1428571E+01   0.5000000E+01  -0.7142859E+00   0.2321049E+01   0.6641735E+00   0.1827655E+01   0.1430714E+01  -0.8617774E+00
  -0.6834690E-01
   0.1428571E+01   0.5000000E+01   0.0000000E+00   0.2321049E+01   0.6641735E+00   0.1827655E+01   0.1430714E+01  -0.8617774E+00
  -0.6834690E-01
   0.2142857E+01   0.5000000E+01  -0.5000000E+01   0.4435783E+00   0.1270139E+01   0.1313647E+00   0.4236804E+00  -0.1424097E+00
  -0.4899725E-01
   0.2142857E+01   0.5000000E+01  -0.4285714E+01   0.5569509E+00   0.1145635E+01   0.2297240E+00   0.5073668E+00  -0.1905575E+00
  -0.6556293E-01
   0.2142857E+01   0.5000000E+01  -0.3571429E+01   0.7265108E+00   0.1106100E+01   0.3255869E+00   0.6494699E+00  -0.2549841E+00
  -0.8772942E-01
   0.2142857E+01   0.5000000E+01  -0.2857143E+01   0.9582019E+00   0.1087266E+01   0.4454755E+00   0.8483528E+00  -0.3411933E+00
  -0.1173905E+00
   0.2142857E+01   0.5000000E+01  -0.2142857E+01   0.1274991E+01   0.1077169E+01   0.6041204E+00   0.1122783E+01  -0.4565493E+00
  -0.1570797E+00
   0.2142857E+01   0.5000000E+01  -0.1428571E+01   0.1716930E+01   0.1082253E+01   0.8058241E+00   0.1516079E+01  -0.6109074E+00
  -0.2101879E+00
   0.2142857E+01   0.5000000E+01  -0.7142859E+00   0.2351699E+01   0.1095776E+01   0.1075566E+01   0.2091327E+01  -0.8174528E+00
  -0.2812516E+00
   0.2142857E+01   0.5000000E+01   0.0000000E+00   0.2351699E+01   0.1095776E+01   0.1075566E+01   0.2091327E+01  -0.8174528E+00
  -0.2812516E+00
   0.2857143E+01   0.5000000E+01  -0.5000000E+01   0.4950237E+00   0.1634384E+01  -0.3145632E-01   0.4940232E+00  -0.1256757E+00
  -0.8298703E-01
   0.2857143E+01   0.5000000E+01  -0.4285714E+01   0.6241119E+00   0.1555654E+01   0.9450272E-02   0.6240404E+00  -0.1681660E+00
  -0.1110444E+00
   0.2857143E+01   0.5000000E+01  -0.3571429E+01   0.8160935E+00   0.1535969E+01   0.2841621E-01   0.8155986E+00  -0.2250220E+00
  -0.1485880E+00
   0.2857143E+01   0.5000000E+01  -0.2857143E+01   0.1077582E+01   0.1527060E+01   0.4711407E-01   0.1076552E+01  -0.3011012E+00
  -0.1988251E+00
   0.2857143E+01   0.5000000E+01  -0.2142857E+01   0.1434375E+01   0.1521409E+01   0.7081122E-01   0.1432626E+01  -0.4029023E+00
  -0.2660471E+00
   0.2857143E+01   0.5000000E+01  -0.1428571E+01   0.1932813E+01   0.1524436E+01   0.8957361E-01   0.1930736E+01  -0.5391225E+00
  -0.3559969E+00
   0.2857143E+01   0.5000000E+01  -0.7142859E+00   0.2636534E+01   0.1525666E+01   0.1189462E+00   0.2633850E+01  -0.7213976E+00
  -0.4763580E+00
   0.2857143E+01   0.5000000E+01   0.0000000E+00   0.2636534E+01   0.1525666E+01   0.1189462E+00   0.2633850E+01  -0.7213976E+00
  -0.4763580E+00
   0.3571429E+01   0.5000000E+01  -0.5000000E+01   0.5776457E+00   0.1943398E+01  -0.2102863E+00   0.5380095E+00  -0.1009888E+00
  -0.1117252E+00
   0.3571429E+01   0.5000000E+01  -0.4285714E+01   0.7454965E+00   0.1898777E+01  -0.2401485E+00   0.7057575E+00  -0.1351325E+00
  -0.1494987E+00
   0.3571429E+01   0.5000000E+01  -0.3571429E+01   0.9851683E+00   0.1892201E+01  -0.3112141E+00   0.9347205E+00  -0.1808201E+00
  -0.2000435E+00
   0.3571429E+01   0.5000000E+01  -0.2857143E+01   0.1307242E+01   0.1889311E+01  -0.4093710E+00   0.1241490E+01  -0.2419548E+00
  -0.2676776E+00
   0.3571429E+01   0.5000000E+01  -0.2142857E+01   0.1743442E+01   0.1886300E+01  -0.5409814E+00   0.1657386E+01  -0.3237587E+00
  -0.3581783E+00
   0.3571429E+01   0.5000000E+01  -0.1428571E+01   0.2348421E+01   0.1887881E+01  -0.7322337E+00   0.2231349E+01  -0.4332206E+00
  -0.4792773E+00
   0.3571429E+01   0.5000000E+01  -0.7142859E+00   0.3185435E+01   0.1884619E+01  -0.9833325E+00   0.3029860E+01  -0.5796908E+00
  -0.6413192E+00
   0.3571429E+01   0.5000000E+01   0.0000000E+00   0.3185435E+01   0.1884619E+01  -0.9833325E+00   0.3029860E+01  -0.5796908E+00
  -0.6413192E+00
   0.4285714E+01   0.5000000E+01  -0.5000000E+01   0.6904055E+00   0.2184283E+01  -0.3974818E+00   0.5645068E+00  -0.6991097E-01
  -0.1333930E+00
   0.4285714E+01   0.5000000E+01  -0.4285714E+01   0.9180530E+00   0.2160631E+01  -0.5106428E+00   0.7629321E+00  -0.9354744E-01
  -0.1784924E+00
   0.4285714E+01   0.5000000E+01  -0.3571429E+01   0.1227446E+01   0.2160010E+01  -0.6821003E+00   0.1020472E+01  -0.1251754E+00
  -0.2388398E+00
   0.4285714E+01   0.5000000E+01  -0.2857143E+01   0.1637336E+01   0.2159386E+01  -0.9090308E+00   0.1361812E+01  -0.1674967E+00
  -0.3195907E+00
   0.4285714E+01   0.5000000E+01  -0.2142857E+01   0.2187785E+01   0.2157404E+01  -0.1211025E+01   0.1822038E+01  -0.2241267E+00
  -0.4276430E+00
   0.4285714E+01   0.5000000E+01  -0.1428571E+01   0.2943395E+01   0.2158140E+01  -0.1631087E+01   0.2450129E+01  -0.2999033E+00
  -0.5722280E+00
   0.4285714E+01   0.5000000E+01  -0.7142859E+00   0.3967421E+01   0.2154050E+01  -0.2185027E+01   0.3311508E+01  -0.4012994E+00
  -0.7656960E+00
   0.4285714E+01   0.5000000E+01   0.0000000E+00   0.3967421E+01   0.2154050E+01  -0.2185027E+01   0.3311508E+01  -0.4012994E+00
  -0.7656960E+00
   0.5000000E+01   0.5000000E+01  -0.5000000E+01   0.6904055E+00   0.2184283E+01  -0.3974818E+00   0.5645068E+00  -0.6991097E-01
  -0.1333930E+00
   0.5000000E+01   0.5000000E+01  -0.4285714E+01   0.9180530E+00   0.2160631E+01  -0.5106428E+00   0.7629321E+00  -0.9354744E-01
  -0.1784924E+00
   0.5000000E+01   0.5000000E+01  -0.3571429E+01   0.1227446E+01   0.2160010E+01  -0.6821003E+00   0.1020472E+01  -0.1251754E+00
  -0.2388398E+00
   0.5000000E+01   0.5000000E+01  -0.2857143E+01   0.1637336E+01   0.2159386E+01  -0.9090308E+00   0.1361812E+01  -0.1674967E+00
  -0.3195907E+00
   0.5000000E+01   0.5000000E+01  -0.2142857E+01   0.2187785E+01   0.2157404E+01  -0.1211025E+01   0.1822038E+01  -0.2241267E+00
  -0.4276430E+00
   0.5000000E+01   0.5000000E+01  -0.1428571E+01   0.2943395E+01   0.2158140E+01  -0.1631087E+01   0.2450129E+01  -0.2999033E+00
  -0.5722280E+00
   0.5000000E+01   0.5000000E+01  -0.7142859E+00   0.3967421E+01   0.2154050E+01  -0.2185027E+01   0.3311508E+01  -0.4012994E+00
  -0.7656960E+00
   0.5000000E+01   0.5000000E+01   0.0000000E+00   0.3967421E+01   0.2154050E+01  -0.2185027E+01   0.3311508E+01  -0.4012994E+00
  -0.7656960E+00
   0.5000000E+01   0.5000000E+01  -0.5000000E+01   0.9080330E+00   0.2214266E+01  -0.5447971E+00   0.7264435E+00  -0.1086081E+00
  -0.2371666E+00
   0.5000000E+01   0.5000000E+01  -0.4285714E+01   0.1253138E+01   0.2192245E+01  -0.7295942E+00   0.1018846E+01  -0.1453279E+00
  -0.3173512E+00
   0.5000000E+01   0.5000000E+01  -0.3571429E+01   0.1696128E+01   0.2189580E+01  -0.9838302E+00   0.1381639E+01  -0.1944625E+00
  -0.4246460E+00
   0.5000000E+01   0.5000000E+01  -0.2857143E+01   0.2275214E+01   0.2187958E+01  -0.1316719E+01   0.1855492E+01  -0.2602096E+00
  -0.5682175E+00
   0.5000000E+01   0.5000000E+01  -0.2142857E+01   0.3046899E+01   0.2185923E+01  -0.1758249E+01   0.2488404E+01  -0.3481854E+00
  -0.7603295E+00
   0.5000000E+01   0.5000000E+01  -0.1428571E+01   0.4093400E+01   0.2186195E+01  -0.2363054E+01   0.3342439E+01  -0.4659059E+00
  -0.1017395E+01
   0.5000000E+01   0.5000000E+01  -0.7142859E+00   0.5470800E+01   0.2183325E+01  -0.3145370E+01   0.4476193E+01  -0.6234269E+00
  -0.1361372E+01
   0.5000000E+01   0.5000000E+01   0.0000000E+00   0.5470800E+01   0.2183325E+01  -0.3145370E+01   0.4476193E+01  -0.6234269E+00
  -0.1361372E+01
   0.5000000E+01   0.4285714E+01  -0.5000000E+01   0.1002049E+01   0.2116770E+01  -0.5203148E+00   0.8563731E+00  -0.1418737E+00
  -0.2188962E+00