VARIABLES="X" "Y" "Z" "Module" "Phase" "Real" "Imag" "Re(NVEL)" "Im(NVEL)"
 ZONE "Body",N=         768 , E=         588  , F=FEPOINT,ET=QUADRILATERAL
  -0.5000000E+01   0.0000000E+00  -0.5000000E+01   0.6675082E+00   0.1180283E+01   0.2540959E+00   0.6172540E+00  -0.2589133E+00
   0.3174255E-01
  -0.5000000E+01   0.0000000E+00  -0.4285714E+01   0.1137175E+01   0.1211563E+01   0.3997818E+00   0.1064585E+01  -0.3464504E+00
   0.4247452E-01
  -0.5000000E+01   0.0000000E+00  -0.3571429E+01   0.1654333E+01   0.1218575E+01   0.5707175E+00   0.1552772E+01  -0.4635835E+00
   0.5683494E-01
  -0.5000000E+01   0.0000000E+00  -0.2857143E+01   0.2298116E+01   0.1223567E+01   0.7820342E+00   0.2160963E+01  -0.6203196E+00
   0.7605065E-01
  -0.5000000E+01   0.0000000E+00  -0.2142857E+01   0.3132661E+01   0.1227887E+01   0.1053289E+01   0.2950279E+01  -0.8300471E+00
   0.1017631E+00
  -0.5000000E+01   0.0000000E+00  -0.1428571E+01   0.4244716E+01   0.1228712E+01   0.1423896E+01   0.3998766E+01  -0.1110684E+01
   0.1361689E+00
  -0.5000000E+01   0.0000000E+00  -0.7142859E+00   0.5760408E+01   0.1233599E+01   0.1905792E+01   0.5436015E+01  -0.1486202E+01
   0.1822070E+00
  -0.5000000E+01   0.0000000E+00   0.0000000E+00   0.5760408E+01   0.1233599E+01   0.1905792E+01   0.5436015E+01  -0.1486202E+01
   0.1822070E+00
  -0.5000000E+01   0.7142857E+00  -0.5000000E+01   0.7370532E+00   0.1268663E+01   0.2193158E+00   0.7036675E+00  -0.2607791E+00
  -0.6164346E-02
  -0.5000000E+01   0.7142857E+00  -0.4285714E+01   0.1241489E+01   0.1299743E+01   0.3324038E+00   0.1196161E+01  -0.3489469E+00
  -0.8248474E-02
  -0.5000000E+01   0.7142857E+00  -0.3571429E+01   0.1798694E+01   0.1306423E+01   0.4700070E+00   0.1736201E+01  -0.4669241E+00
  -0.1103724E-01
  -0.5000000E+01   0.7142857E+00  -0.2857143E+01   0.2493520E+01   0.1310746E+01   0.6411558E+00   0.2409680E+01  -0.6247896E+00
  -0.1476890E-01
  -0.5000000E+01   0.7142857E+00  -0.2142857E+01   0.3395388E+01   0.1314419E+01   0.8609957E+00   0.3284410E+01  -0.8360284E+00
  -0.1976220E-01
  -0.5000000E+01   0.7142857E+00  -0.1428571E+01   0.4596136E+01   0.1314751E+01   0.1164003E+01   0.4446297E+01  -0.1118687E+01
  -0.2644375E-01
  -0.5000000E+01   0.7142857E+00  -0.7142859E+00   0.6222000E+01   0.1317865E+01   0.1557010E+01   0.6024035E+01  -0.1496911E+01
  -0.3538427E-01
  -0.5000000E+01   0.7142857E+00   0.0000000E+00   0.6222000E+01   0.1317865E+01   0.1557010E+01   0.6024035E+01  -0.1496911E+01
  -0.3538427E-01
  -0.5000000E+01   0.1428571E+01  -0.5000000E+01   0.7757248E+00   0.1344166E+01   0.1743020E+00   0.7558888E+00  -0.2571243E+00
  -0.4394075E-01
  -0.5000000E+01   0.1428571E+01  -0.4285714E+01   0.1296053E+01   0.1376557E+01   0.2501647E+00   0.1271680E+01  -0.3440565E+00
  -0.5879685E-01
  -0.5000000E+01   0.1428571E+01  -0.3571429E+01   0.1871798E+01   0.1383571E+01   0.3484041E+00   0.1839087E+01  -0.4603803E+00
  -0.7867578E-01
  -0.5000000E+01   0.1428571E+01  -0.2857143E+01   0.2589873E+01   0.1387564E+01   0.4718979E+00   0.2546518E+01  -0.6160334E+00
  -0.1052758E+00
  -0.5000000E+01   0.1428571E+01  -0.2142857E+01   0.3523136E+01   0.1390762E+01   0.6308634E+00   0.3466194E+01  -0.8243118E+00
  -0.1408691E+00
  -0.5000000E+01   0.1428571E+01  -0.1428571E+01   0.4765165E+01   0.1390899E+01   0.8526244E+00   0.4688265E+01  -0.1103009E+01
  -0.1884966E+00
  -0.5000000E+01   0.1428571E+01  -0.7142859E+00   0.6433814E+01   0.1392856E+01   0.1138803E+01   0.6332226E+01  -0.1475932E+01
  -0.2522265E+00
  -0.5000000E+01   0.1428571E+01   0.0000000E+00   0.6433814E+01   0.1392856E+01   0.1138803E+01   0.6332226E+01  -0.1475932E+01
  -0.2522265E+00
  -0.5000000E+01   0.2142857E+01  -0.5000000E+01   0.7765681E+00   0.1414007E+01   0.1212596E+00   0.7670424E+00  -0.2480266E+00
  -0.8078697E-01
  -0.5000000E+01   0.2142857E+01  -0.4285714E+01   0.1289437E+01   0.1448462E+01   0.1573491E+00   0.1279801E+01  -0.3318829E+00
  -0.1081006E+00
  -0.5000000E+01   0.2142857E+01  -0.3571429E+01   0.1857028E+01   0.1456149E+01   0.2124379E+00   0.1844837E+01  -0.4440908E+00
  -0.1446488E+00
  -0.5000000E+01   0.2142857E+01  -0.2857143E+01   0.2564551E+01   0.1459990E+01   0.2835876E+00   0.2548823E+01  -0.5942364E+00
  -0.1935541E+00
  -0.5000000E+01   0.2142857E+01  -0.2142857E+01   0.3484102E+01   0.1462870E+01   0.3752961E+00   0.3463830E+01  -0.7951453E+00
  -0.2589940E+00
  -0.5000000E+01   0.2142857E+01  -0.1428571E+01   0.4710539E+01   0.1462983E+01   0.5068764E+00   0.4683189E+01  -0.1063982E+01
  -0.3465591E+00
  -0.5000000E+01   0.2142857E+01  -0.7142859E+00   0.6345721E+01   0.1464199E+01   0.6751547E+00   0.6309702E+01  -0.1423710E+01
  -0.4637294E+00
  -0.5000000E+01   0.2142857E+01   0.0000000E+00   0.6345721E+01   0.1464199E+01   0.6751547E+00   0.6309702E+01  -0.1423710E+01
  -0.4637294E+00
  -0.5000000E+01   0.2857143E+01  -0.5000000E+01   0.7343239E+00   0.1486342E+01   0.6194339E-01   0.7317067E+00  -0.2336783E+00
  -0.1159230E+00
  -0.5000000E+01   0.2857143E+01  -0.4285714E+01   0.1212289E+01   0.1523011E+01   0.5790798E-01   0.1210905E+01  -0.3126836E+00
  -0.1551159E+00
  -0.5000000E+01   0.2857143E+01  -0.3571429E+01   0.1740621E+01   0.1531556E+01   0.6828409E-01   0.1739281E+01  -0.4184003E+00
  -0.2075598E+00
  -0.5000000E+01   0.2857143E+01  -0.2857143E+01   0.2397627E+01   0.1535463E+01   0.8469864E-01   0.2396131E+01  -0.5598601E+00
  -0.2777351E+00
  -0.5000000E+01   0.2857143E+01  -0.2142857E+01   0.3251235E+01   0.1538249E+01   0.1057991E+00   0.3249513E+01  -0.7491466E+00
  -0.3716362E+00
  -0.5000000E+01   0.2857143E+01  -0.1428571E+01   0.4393261E+01   0.1538515E+01   0.1417957E+00   0.4390973E+01  -0.1002431E+01
  -0.4972854E+00
  -0.5000000E+01   0.2857143E+01  -0.7142859E+00   0.5913242E+01   0.1538986E+01   0.1880676E+00   0.5910250E+01  -0.1341349E+01
  -0.6654156E+00
  -0.5000000E+01   0.2857143E+01   0.0000000E+00   0.5913242E+01   0.1538986E+01   0.1880676E+00   0.5910250E+01  -0.1341349E+01
  -0.6654156E+00
  -0.5000000E+01   0.3571429E+01  -0.5000000E+01   0.6431821E+00   0.1575614E+01  -0.3098415E-02   0.6431746E+00  -0.2143834E+00
  -0.1486051E+00
  -0.5000000E+01   0.3571429E+01  -0.4285714E+01   0.1052418E+01   0.1614035E+01  -0.4549119E-01   0.1051435E+01  -0.2868651E+00
  -0.1988476E+00
  -0.5000000E+01   0.3571429E+01  -0.3571429E+01   0.1505262E+01   0.1623451E+01  -0.7922232E-01   0.1503176E+01  -0.3838528E+00
  -0.2660770E+00
  -0.5000000E+01   0.3571429E+01  -0.2857143E+01   0.2068615E+01   0.1627421E+01  -0.1170724E+00   0.2065299E+01  -0.5136322E+00
  -0.3560367E+00
  -0.5000000E+01   0.3571429E+01  -0.2142857E+01   0.2800187E+01   0.1630203E+01  -0.1662511E+00   0.2795248E+01  -0.6872891E+00
  -0.4764113E+00
  -0.5000000E+01   0.3571429E+01  -0.1428571E+01   0.3780994E+01   0.1630904E+01  -0.2271282E+00   0.3774166E+01  -0.9196596E+00
  -0.6374846E+00
  -0.5000000E+01   0.3571429E+01  -0.7142859E+00   0.5066909E+01   0.1631912E+01  -0.3094757E+00   0.5057449E+01  -0.1230593E+01
  -0.8530157E+00
  -0.5000000E+01   0.3571429E+01   0.0000000E+00   0.5066909E+01   0.1631912E+01  -0.3094757E+00   0.5057449E+01  -0.1230593E+01
  -0.8530157E+00
  -0.5000000E+01   0.4285714E+01  -0.5000000E+01   0.4781800E+00   0.1744077E+01  -0.8244549E-01   0.4710189E+00  -0.1905501E+00
  -0.1781414E+00
  -0.5000000E+01   0.4285714E+01  -0.4285714E+01   0.7619370E+00   0.1781978E+01  -0.1597139E+00   0.7450097E+00  -0.2549740E+00
  -0.2383699E+00
  -0.5000000E+01   0.4285714E+01  -0.3571429E+01   0.1083285E+01   0.1792548E+01  -0.2382567E+00   0.1056759E+01  -0.3411795E+00
  -0.3189616E+00
  -0.5000000E+01   0.4285714E+01  -0.2857143E+01   0.1485643E+01   0.1796787E+01  -0.3328907E+00   0.1447867E+01  -0.4565311E+00
  -0.4268014E+00
  -0.5000000E+01   0.4285714E+01  -0.2142857E+01   0.2009061E+01   0.1799619E+01  -0.4557176E+00   0.1956693E+01  -0.6108825E+00
  -0.5711012E+00
  -0.5000000E+01   0.4285714E+01  -0.1428571E+01   0.2716330E+01   0.1800378E+01  -0.6181566E+00   0.2645057E+01  -0.8174201E+00
  -0.7641889E+00
  -0.5000000E+01   0.4285714E+01  -0.7142859E+00   0.3630196E+01   0.1802167E+01  -0.8324485E+00   0.3533461E+01  -0.1093787E+01
  -0.1022558E+01
  -0.5000000E+01   0.4285714E+01   0.0000000E+00   0.3630196E+01   0.1802167E+01  -0.8324485E+00   0.3533461E+01  -0.1093787E+01
  -0.1022558E+01
  -0.5000000E+01   0.5000000E+01  -0.5000000E+01   0.4781800E+00   0.1744077E+01  -0.8244549E-01   0.4710189E+00  -0.1905501E+00
  -0.1781414E+00
  -0.5000000E+01   0.5000000E+01  -0.4285714E+01   0.7619370E+00   0.1781978E+01  -0.1597139E+00   0.7450097E+00  -0.2549740E+00
  -0.2383699E+00
  -0.5000000E+01   0.5000000E+01  -0.3571429E+01   0.1083285E+01   0.1792548E+01  -0.2382567E+00   0.1056759E+01  -0.3411795E+00
  -0.3189616E+00
  -0.5000000E+01   0.5000000E+01  -0.2857143E+01   0.1485643E+01   0.1796787E+01  -0.3328907E+00   0.1447867E+01  -0.4565311E+00
  -0.4268014E+00
  -0.5000000E+01   0.5000000E+01  -0.2142857E+01   0.2009061E+01   0.1799619E+01  -0.4557176E+00   0.1956693E+01  -0.6108825E+00
  -0.5711012E+00
  -0.5000000E+01   0.5000000E+01  -0.1428571E+01   0.2716330E+01   0.1800378E+01  -0.6181566E+00   0.2645057E+01  -0.8174201E+00
  -0.7641889E+00
  -0.5000000E+01   0.5000000E+01  -0.7142859E+00   0.3630196E+01   0.1802167E+01  -0.8324485E+00   0.3533461E+01  -0.1093787E+01
  -0.1022558E+01
  -0.5000000E+01   0.5000000E+01   0.0000000E+00   0.3630196E+01   0.1802167E+01  -0.8324485E+00   0.3533461E+01  -0.1093787E+01
  -0.1022558E+01
  -0.5000000E+01   0.5000000E+01  -0.5000000E+01   0.1407707E+00   0.2702104E+01  -0.1273931E+00   0.5989469E-01   0.8751976E-01
   0.1225624E+00
  -0.5000000E+01   0.5000000E+01  -0.4285714E+01   0.2611803E+00   0.2781619E+01  -0.2444402E+00   0.9200073E-01   0.1171097E+00
   0.1640000E+00
  -0.5000000E+01   0.5000000E+01  -0.3571429E+01   0.3866885E+00   0.2790810E+01  -0.3631408E+00   0.1328788E+00   0.1567039E+00
   0.2194475E+00
  -0.5000000E+01   0.5000000E+01  -0.2857143E+01   0.5378829E+00   0.2793653E+01  -0.5056514E+00   0.1833975E+00   0.2096849E+00
   0.2936420E+00
  -0.5000000E+01   0.5000000E+01  -0.2142857E+01   0.7324903E+00   0.2793860E+01  -0.6886491E+00   0.2496086E+00   0.2805785E+00
   0.3929211E+00
  -0.5000000E+01   0.5000000E+01  -0.1428571E+01   0.9964000E+00   0.2774460E+01  -0.9300004E+00   0.3576482E+00   0.3754413E+00
   0.5257667E+00
  -0.5000000E+01   0.5000000E+01  -0.7142859E+00   0.1345624E+01   0.2721477E+01  -0.1228611E+01   0.5488343E+00   0.5023766E+00
   0.7035264E+00
  -0.5000000E+01   0.5000000E+01   0.0000000E+00   0.1345624E+01   0.2721477E+01  -0.1228611E+01   0.5488343E+00   0.5023766E+00
   0.7035264E+00
  -0.4285714E+01   0.5000000E+01  -0.5000000E+01   0.9906617E-01  -0.1682868E+01  -0.1107927E-01  -0.9844469E-01   0.5416355E-01
   0.1405260E+00
  -0.4285714E+01   0.5000000E+01  -0.4285714E+01   0.1936921E+00  -0.2156997E+01  -0.1071505E+00  -0.1613549E+00   0.7247592E-01
   0.1880370E+00
  -0.4285714E+01   0.5000000E+01  -0.3571429E+01   0.2929301E+00  -0.2258855E+01  -0.1860220E+00  -0.2262827E+00   0.9697966E-01
   0.2516113E+00
  -0.4285714E+01   0.5000000E+01  -0.2857143E+01   0.4112404E+00  -0.2293089E+01  -0.2718738E+00  -0.3085503E+00   0.1297682E+00
   0.3366803E+00
  -0.4285714E+01   0.5000000E+01  -0.2142857E+01   0.5609527E+00  -0.2308826E+01  -0.3774269E+00  -0.4149902E+00   0.1736422E+00
   0.4505105E+00
  -0.4285714E+01   0.5000000E+01  -0.1428571E+01   0.7385427E+00  -0.2336031E+01  -0.5115931E+00  -0.5326517E+00   0.2323502E+00
   0.6028268E+00
  -0.4285714E+01   0.5000000E+01  -0.7142859E+00   0.9165287E+00  -0.2387185E+01  -0.6678536E+00  -0.6276913E+00   0.3109069E+00
   0.8066403E+00
  -0.4285714E+01   0.5000000E+01   0.0000000E+00   0.9165287E+00  -0.2387185E+01  -0.6678536E+00  -0.6276913E+00   0.3109069E+00
   0.8066403E+00
  -0.3571429E+01   0.5000000E+01  -0.5000000E+01   0.2038430E+00  -0.9575574E+00   0.1173156E+00  -0.1667004E+00   0.1737976E-01
   0.1495967E+00
  -0.3571429E+01   0.5000000E+01  -0.4285714E+01   0.2924655E+00  -0.1336790E+01   0.6781588E-01  -0.2844944E+00   0.2325576E-01
   0.2001745E+00
  -0.3571429E+01   0.5000000E+01  -0.3571429E+01   0.4097517E+00  -0.1450718E+01   0.4908407E-01  -0.4068012E+00   0.3111841E-01
   0.2678525E+00
  -0.3571429E+01   0.5000000E+01  -0.2857143E+01   0.5608156E+00  -0.1495023E+01   0.4245411E-01  -0.5592064E+00   0.4163945E-01
   0.3584125E+00
  -0.3571429E+01   0.5000000E+01  -0.2142857E+01   0.7579383E+00  -0.1514399E+01   0.4272325E-01  -0.7567332E+00   0.5571757E-01
   0.4795903E+00
  -0.3571429E+01   0.5000000E+01  -0.1428571E+01   0.9949500E+00  -0.1518584E+01   0.5192536E-01  -0.9935941E+00   0.7455552E-01
   0.6417385E+00
  -0.3571429E+01   0.5000000E+01  -0.7142859E+00   0.1248381E+01  -0.1504616E+01   0.8255756E-01  -0.1245649E+01   0.9976245E-01
   0.8587078E+00
  -0.3571429E+01   0.5000000E+01   0.0000000E+00   0.1248381E+01  -0.1504616E+01   0.8255756E-01  -0.1245649E+01   0.9976245E-01
   0.8587078E+00
  -0.2857143E+01   0.5000000E+01  -0.5000000E+01   0.2996074E+00  -0.6505697E+00   0.2384093E+00  -0.1814542E+00  -0.2050390E-01
   0.1492006E+00
  -0.2857143E+01   0.5000000E+01  -0.4285714E+01   0.4093630E+00  -0.9311253E+00   0.2443617E+00  -0.3284288E+00  -0.2743615E-01
   0.1996445E+00
  -0.2857143E+01   0.5000000E+01  -0.3571429E+01   0.5599100E+00  -0.1023509E+01   0.2913619E+00  -0.4781291E+00  -0.3671218E-01
   0.2671433E+00
  -0.2857143E+01   0.5000000E+01  -0.2857143E+01   0.7587525E+00  -0.1063271E+01   0.3687660E+00  -0.6631116E+00  -0.4912444E-01
   0.3574635E+00
  -0.2857143E+01   0.5000000E+01  -0.2142857E+01   0.1022067E+01  -0.1081615E+01   0.4802724E+00  -0.9021968E+00  -0.6573321E-01
   0.4783205E+00
  -0.2857143E+01   0.5000000E+01  -0.1428571E+01   0.1351374E+01  -0.1078201E+01   0.6390837E+00  -0.1190707E+01  -0.8795743E-01
   0.6400393E+00
  -0.2857143E+01   0.5000000E+01  -0.7142859E+00   0.1731011E+01  -0.1045885E+01   0.8674729E+00  -0.1497962E+01  -0.1176955E+00
   0.8564341E+00
  -0.2857143E+01   0.5000000E+01   0.0000000E+00   0.1731011E+01  -0.1045885E+01   0.8674729E+00  -0.1497962E+01  -0.1176955E+00
   0.8564341E+00
  -0.2142857E+01   0.5000000E+01  -0.5000000E+01   0.3717076E+00  -0.4227761E+00   0.3389800E+00  -0.1525093E+00  -0.5709000E-01
   0.1393627E+00
  -0.2142857E+01   0.5000000E+01  -0.4285714E+01   0.5042454E+00  -0.6540384E+00   0.4001859E+00  -0.3067811E+00  -0.7639178E-01
   0.1864804E+00
  -0.2142857E+01   0.5000000E+01  -0.3571429E+01   0.6848188E+00  -0.7324804E+00   0.5091751E+00  -0.4579492E+00  -0.1022195E+00
   0.2495285E+00
  -0.2142857E+01   0.5000000E+01  -0.2857143E+01   0.9238803E+00  -0.7679018E+00   0.6646115E+00  -0.6417525E+00  -0.1367795E+00
   0.3338933E+00
  -0.2142857E+01   0.5000000E+01  -0.2142857E+01   0.1241986E+01  -0.7849081E+00   0.8786469E+00  -0.8777862E+00  -0.1830241E+00
   0.4467812E+00
  -0.2142857E+01   0.5000000E+01  -0.1428571E+01   0.1649764E+01  -0.7789169E+00   0.1174095E+01  -0.1158974E+01  -0.2449041E+00
   0.5978367E+00
  -0.2142857E+01   0.5000000E+01  -0.7142859E+00   0.2147101E+01  -0.7434617E+00   0.1580545E+01  -0.1453244E+01  -0.3277052E+00
   0.7999631E+00
  -0.2142857E+01   0.5000000E+01   0.0000000E+00   0.2147101E+01  -0.7434617E+00   0.1580545E+01  -0.1453244E+01  -0.3277052E+00
   0.7999631E+00
  -0.1428571E+01   0.5000000E+01  -0.5000000E+01   0.4177584E+00  -0.2117271E+00   0.4084297E+00  -0.8779141E-01  -0.9006331E-01
   0.1207056E+00
  -0.1428571E+01   0.5000000E+01  -0.4285714E+01   0.5663442E+00  -0.4177511E+00   0.5176407E+00  -0.2297692E+00  -0.1205132E+00
   0.1615154E+00
  -0.1428571E+01   0.5000000E+01  -0.3571429E+01   0.7669252E+00  -0.4884806E+00   0.6772310E+00  -0.3599063E+00  -0.1612581E+00
   0.2161230E+00
  -0.1428571E+01   0.5000000E+01  -0.2857143E+01   0.1032237E+01  -0.5213159E+00   0.8951191E+00  -0.5140763E+00  -0.2157789E+00
   0.2891935E+00
  -0.1428571E+01   0.5000000E+01  -0.2142857E+01   0.1385778E+01  -0.5370204E+00   0.1190711E+01  -0.7089335E+00  -0.2887329E+00
   0.3869686E+00
  -0.1428571E+01   0.5000000E+01  -0.1428571E+01   0.1846782E+01  -0.5303640E+00   0.1593077E+01  -0.9341899E+00  -0.3863526E+00
   0.5178016E+00
  -0.1428571E+01   0.5000000E+01  -0.7142859E+00   0.2429521E+01  -0.4949311E+00   0.2137982E+01  -0.1153952E+01  -0.5169770E+00
   0.6928683E+00
  -0.1428571E+01   0.5000000E+01   0.0000000E+00   0.2429521E+01  -0.4949311E+00   0.2137982E+01  -0.1153952E+01  -0.5169770E+00
   0.6928683E+00
  -0.7142859E+00   0.5000000E+01  -0.5000000E+01   0.4387295E+00   0.7306442E-02   0.4387178E+00   0.3205523E-02  -0.1173372E+00
   0.9440991E-01
  -0.7142859E+00   0.5000000E+01  -0.4285714E+01   0.5932454E+00  -0.1865777E+00   0.5829495E+00  -0.1100453E+00  -0.1570082E+00
   0.1263293E+00
  -0.7142859E+00   0.5000000E+01  -0.3571429E+01   0.8011496E+00  -0.2536077E+00   0.7755237E+00  -0.2010067E+00  -0.2100918E+00
   0.1690406E+00
  -0.7142859E+00   0.5000000E+01  -0.2857143E+01   0.1076112E+01  -0.2850517E+00   0.1032688E+01  -0.3026103E+00  -0.2811232E+00
   0.2261927E+00
  -0.7142859E+00   0.5000000E+01  -0.2142857E+01   0.1443304E+01  -0.3001216E+00   0.1378789E+01  -0.4266930E+00  -0.3761698E+00
   0.3026675E+00
  -0.7142859E+00   0.5000000E+01  -0.1428571E+01   0.1927931E+01  -0.2931547E+00   0.1845680E+01  -0.5571216E+00  -0.5033517E+00
   0.4049986E+00
  -0.7142859E+00   0.5000000E+01  -0.7142859E+00   0.2557876E+01  -0.2579780E+00   0.2473230E+01  -0.6525806E+00  -0.6735330E+00
   0.5419270E+00
  -0.7142859E+00   0.5000000E+01   0.0000000E+00   0.2557876E+01  -0.2579780E+00   0.2473230E+01  -0.6525806E+00  -0.6735330E+00
   0.5419270E+00
   0.0000000E+00   0.5000000E+01  -0.5000000E+01   0.4387295E+00   0.7306442E-02   0.4387178E+00   0.3205523E-02  -0.1173372E+00
   0.9440991E-01
   0.0000000E+00   0.5000000E+01  -0.4285714E+01   0.5932454E+00  -0.1865777E+00   0.5829495E+00  -0.1100453E+00  -0.1570082E+00
   0.1263293E+00
   0.0000000E+00   0.5000000E+01  -0.3571429E+01   0.8011496E+00  -0.2536077E+00   0.7755237E+00  -0.2010067E+00  -0.2100918E+00
   0.1690406E+00
   0.0000000E+00   0.5000000E+01  -0.2857143E+01   0.1076112E+01  -0.2850517E+00   0.1032688E+01  -0.3026103E+00  -0.2811232E+00
   0.2261927E+00
   0.0000000E+00   0.5000000E+01  -0.2142857E+01   0.1443304E+01  -0.3001216E+00   0.1378789E+01  -0.4266930E+00  -0.3761698E+00
   0.3026675E+00
   0.0000000E+00   0.5000000E+01  -0.1428571E+01   0.1927931E+01  -0.2931547E+00   0.1845680E+01  -0.5571216E+00  -0.5033517E+00
   0.4049986E+00
   0.0000000E+00   0.5000000E+01  -0.7142859E+00   0.2557876E+01  -0.2579780E+00   0.2473230E+01  -0.6525806E+00  -0.6735330E+00
   0.5419270E+00
   0.0000000E+00   0.5000000E+01   0.0000000E+00   0.2557876E+01  -0.2579780E+00   0.2473230E+01  -0.6525806E+00  -0.6735330E+00
   0.5419270E+00
   0.0000000E+00   0.5000000E+01  -0.5000000E+01   0.4395216E+00   0.2542132E+00   0.4253960E+00   0.1105326E+00  -0.1371856E+00
   0.6213968E-01
   0.0000000E+00   0.5000000E+01  -0.4285714E+01   0.5889172E+00   0.6599571E-01   0.5876352E+00   0.3883780E-01  -0.1835673E+00
   0.8314873E-01
   0.0000000E+00   0.5000000E+01  -0.3571429E+01   0.7914606E+00   0.5148571E-03   0.7914605E+00   0.4074891E-03  -0.2456305E+00
   0.1112609E+00
   0.0000000E+00   0.5000000E+01  -0.2857143E+01   0.1060177E+01  -0.3038199E-01   0.1059688E+01  -0.3220534E-01  -0.3286773E+00
   0.1488779E+00
   0.0000000E+00   0.5000000E+01  -0.2142857E+01   0.1420301E+01  -0.4519301E-01   0.1418851E+01  -0.6416585E-01  -0.4398017E+00
   0.1992128E+00
   0.0000000E+00   0.5000000E+01  -0.1428571E+01   0.1900907E+01  -0.3801608E-01   0.1899534E+01  -0.7224764E-01  -0.5884975E+00
   0.2665662E+00
   0.0000000E+00   0.5000000E+01  -0.7142859E+00   0.2543025E+01  -0.3546585E-02   0.2543009E+01  -0.9019035E-02  -0.7874662E+00
   0.3566911E+00
   0.0000000E+00   0.5000000E+01   0.0000000E+00   0.2543025E+01  -0.3546585E-02   0.2543009E+01  -0.9019035E-02  -0.7874662E+00
   0.3566911E+00
   0.7142857E+00   0.5000000E+01  -0.5000000E+01   0.4299152E+00   0.5462792E+00   0.3673468E+00   0.2233459E+00  -0.1483526E+00
   0.2593712E-01
   0.7142857E+00   0.5000000E+01  -0.4285714E+01   0.5652679E+00   0.3646292E+00   0.5281049E+00   0.2015762E+00  -0.1985098E+00
   0.3470630E-01
   0.7142857E+00   0.5000000E+01  -0.3571429E+01   0.7531375E+00   0.3011672E+00   0.7192395E+00   0.2234070E+00  -0.2656249E+00
   0.4644033E-01
   0.7142857E+00   0.5000000E+01  -0.2857143E+01   0.1004367E+01   0.2710239E+00   0.9677051E+00   0.2688873E+00  -0.3554319E+00
   0.6214165E-01
   0.7142857E+00   0.5000000E+01  -0.2142857E+01   0.1343075E+01   0.2564671E+00   0.1299146E+01   0.3406908E+00  -0.4756019E+00
   0.8315149E-01
   0.7142857E+00   0.5000000E+01  -0.1428571E+01   0.1801133E+01   0.2637131E+00   0.1738865E+01   0.4694960E+00  -0.6364016E+00
   0.1112648E+00
   0.7142857E+00   0.5000000E+01  -0.7142859E+00   0.2431798E+01   0.2957646E+00   0.2326208E+01   0.7087994E+00  -0.8515665E+00
   0.1488830E+00
   0.7142857E+00   0.5000000E+01   0.0000000E+00   0.2431798E+01   0.2957646E+00   0.2326208E+01   0.7087994E+00  -0.8515665E+00
   0.1488830E+00
   0.1428571E+01   0.5000000E+01  -0.5000000E+01   0.4253761E+00   0.8912913E+00   0.2673098E+00   0.3308932E+00  -0.1501315E+00
  -0.1190681E-01
   0.1428571E+01   0.5000000E+01  -0.4285714E+01   0.5446297E+00   0.7283008E+00   0.4064607E+00   0.3625069E+00  -0.2008901E+00
  -0.1593244E-01
   0.1428571E+01   0.5000000E+01  -0.3571429E+01   0.7169040E+00   0.6721299E+00   0.5609754E+00   0.4463832E+00  -0.2688100E+00
  -0.2131911E-01
   0.1428571E+01   0.5000000E+01  -0.2857143E+01   0.9501296E+00   0.6453196E+00   0.7590657E+00   0.5714591E+00  -0.3596938E+00
  -0.2852703E-01
   0.1428571E+01   0.5000000E+01  -0.2142857E+01   0.1267161E+01   0.6318259E+00   0.1022536E+01   0.7484096E+00  -0.4813047E+00
  -0.3817191E-01
   0.1428571E+01   0.5000000E+01  -0.1428571E+01   0.1703124E+01   0.6386536E+00   0.1367437E+01   0.1015258E+01  -0.6440325E+00
  -0.5107772E-01
   0.1428571E+01   0.5000000E+01  -0.7142859E+00   0.2321072E+01   0.6641845E+00   0.1827658E+01   0.1430749E+01  -0.8617774E+00
  -0.6834690E-01
   0.1428571E+01   0.5000000E+01   0.0000000E+00   0.2321072E+01   0.6641845E+00   0.1827658E+01   0.1430749E+01  -0.8617774E+00
  -0.6834690E-01
   0.2142857E+01   0.5000000E+01  -0.5000000E+01   0.4436120E+00   0.1270159E+01   0.1313664E+00   0.4237151E+00  -0.1424097E+00
  -0.4899725E-01
   0.2142857E+01   0.5000000E+01  -0.4285714E+01   0.5569813E+00   0.1145656E+01   0.2297260E+00   0.5073993E+00  -0.1905575E+00
  -0.6556293E-01
   0.2142857E+01   0.5000000E+01  -0.3571429E+01   0.7265407E+00   0.1106117E+01   0.3255890E+00   0.6495023E+00  -0.2549841E+00
  -0.8772942E-01
   0.2142857E+01   0.5000000E+01  -0.2857143E+01   0.9582314E+00   0.1087279E+01   0.4454782E+00   0.8483847E+00  -0.3411933E+00
  -0.1173905E+00
   0.2142857E+01   0.5000000E+01  -0.2142857E+01   0.1275021E+01   0.1077179E+01   0.6041235E+00   0.1122814E+01  -0.4565493E+00
  -0.1570797E+00
   0.2142857E+01   0.5000000E+01  -0.1428571E+01   0.1716959E+01   0.1082261E+01   0.8058257E+00   0.1516111E+01  -0.6109074E+00
  -0.2101879E+00
   0.2142857E+01   0.5000000E+01  -0.7142859E+00   0.2351730E+01   0.1095781E+01   0.1075569E+01   0.2091360E+01  -0.8174528E+00
  -0.2812516E+00
   0.2142857E+01   0.5000000E+01   0.0000000E+00   0.2351730E+01   0.1095781E+01   0.1075569E+01   0.2091360E+01  -0.8174528E+00
  -0.2812516E+00
   0.2857143E+01   0.5000000E+01  -0.5000000E+01   0.4950565E+00   0.1634376E+01  -0.3145446E-01   0.4940562E+00  -0.1256757E+00
  -0.8298703E-01
   0.2857143E+01   0.5000000E+01  -0.4285714E+01   0.6241435E+00   0.1555652E+01   0.9452055E-02   0.6240720E+00  -0.1681660E+00
  -0.1110444E+00
   0.2857143E+01   0.5000000E+01  -0.3571429E+01   0.8161252E+00   0.1535968E+01   0.2841886E-01   0.8156303E+00  -0.2250220E+00
  -0.1485880E+00
   0.2857143E+01   0.5000000E+01  -0.2857143E+01   0.1077613E+01   0.1527059E+01   0.4711693E-01   0.1076582E+01  -0.3011012E+00
  -0.1988251E+00
   0.2857143E+01   0.5000000E+01  -0.2142857E+01   0.1434407E+01   0.1521408E+01   0.7081390E-01   0.1432657E+01  -0.4029023E+00
  -0.2660471E+00
   0.2857143E+01   0.5000000E+01  -0.1428571E+01   0.1932845E+01   0.1524436E+01   0.8957553E-01   0.1930768E+01  -0.5391225E+00
  -0.3559969E+00
   0.2857143E+01   0.5000000E+01  -0.7142859E+00   0.2636568E+01   0.1525666E+01   0.1189488E+00   0.2633883E+01  -0.7213976E+00
  -0.4763580E+00
   0.2857143E+01   0.5000000E+01   0.0000000E+00   0.2636568E+01   0.1525666E+01   0.1189488E+00   0.2633883E+01  -0.7213976E+00
  -0.4763580E+00
   0.3571429E+01   0.5000000E+01  -0.5000000E+01   0.5776751E+00   0.1943375E+01  -0.2102841E+00   0.5380419E+00  -0.1009888E+00
  -0.1117252E+00
   0.3571429E+01   0.5000000E+01  -0.4285714E+01   0.7455257E+00   0.1898761E+01  -0.2401463E+00   0.7057891E+00  -0.1351325E+00
  -0.1494987E+00
   0.3571429E+01   0.5000000E+01  -0.3571429E+01   0.9851973E+00   0.1892189E+01  -0.3112123E+00   0.9347516E+00  -0.1808201E+00
  -0.2000435E+00
   0.3571429E+01   0.5000000E+01  -0.2857143E+01   0.1307271E+01   0.1889301E+01  -0.4093682E+00   0.1241521E+01  -0.2419548E+00
  -0.2676776E+00
   0.3571429E+01   0.5000000E+01  -0.2142857E+01   0.1743471E+01   0.1886293E+01  -0.5409784E+00   0.1657417E+01  -0.3237587E+00
  -0.3581783E+00
   0.3571429E+01   0.5000000E+01  -0.1428571E+01   0.2348451E+01   0.1887876E+01  -0.7322304E+00   0.2231380E+01  -0.4332206E+00
  -0.4792773E+00
   0.3571429E+01   0.5000000E+01  -0.7142859E+00   0.3185464E+01   0.1884615E+01  -0.9833295E+00   0.3029892E+01  -0.5796908E+00
  -0.6413192E+00
   0.3571429E+01   0.5000000E+01   0.0000000E+00   0.3185464E+01   0.1884615E+01  -0.9833295E+00   0.3029892E+01  -0.5796908E+00
  -0.6413192E+00
   0.4285714E+01   0.5000000E+01  -0.5000000E+01   0.6904298E+00   0.2184255E+01  -0.3974796E+00   0.5645381E+00  -0.6991097E-01
  -0.1333930E+00
   0.4285714E+01   0.5000000E+01  -0.4285714E+01   0.9180773E+00   0.2160611E+01  -0.5106410E+00   0.7629625E+00  -0.9354744E-01
  -0.1784924E+00
   0.4285714E+01   0.5000000E+01  -0.3571429E+01   0.1227469E+01   0.2159994E+01  -0.6820977E+00   0.1020501E+01  -0.1251754E+00
  -0.2388398E+00
   0.4285714E+01   0.5000000E+01  -0.2857143E+01   0.1637357E+01   0.2159375E+01  -0.9090269E+00   0.1361840E+01  -0.1674967E+00
  -0.3195907E+00
   0.4285714E+01   0.5000000E+01  -0.2142857E+01   0.2187808E+01   0.2157396E+01  -0.1211022E+01   0.1822067E+01  -0.2241267E+00
  -0.4276430E+00
   0.4285714E+01   0.5000000E+01  -0.1428571E+01   0.2943421E+01   0.2158132E+01  -0.1631083E+01   0.2450162E+01  -0.2999033E+00
  -0.5722280E+00
   0.4285714E+01   0.5000000E+01  -0.7142859E+00   0.3967446E+01   0.2154044E+01  -0.2185023E+01   0.3311540E+01  -0.4012994E+00
  -0.7656960E+00
   0.4285714E+01   0.5000000E+01   0.0000000E+00   0.3967446E+01   0.2154044E+01  -0.2185023E+01   0.3311540E+01  -0.4012994E+00
  -0.7656960E+00
   0.5000000E+01   0.5000000E+01  -0.5000000E+01   0.6904298E+00   0.2184255E+01  -0.3974796E+00   0.5645381E+00  -0.6991097E-01
  -0.1333930E+00
   0.5000000E+01   0.5000000E+01  -0.4285714E+01   0.9180773E+00   0.2160611E+01  -0.5106410E+00   0.7629625E+00  -0.9354744E-01
  -0.1784924E+00
   0.5000000E+01   0.5000000E+01  -0.3571429E+01   0.1227469E+01   0.2159994E+01  -0.6820977E+00   0.1020501E+01  -0.1251754E+00
  -0.2388398E+00
   0.5000000E+01   0.5000000E+01  -0.2857143E+01   0.1637357E+01   0.2159375E+01  -0.9090269E+00   0.1361840E+01  -0.1674967E+00
  -0.3195907E+00
   0.5000000E+01   0.5000000E+01  -0.2142857E+01   0.2187808E+01   0.2157396E+01  -0.1211022E+01   0.1822067E+01  -0.2241267E+00
  -0.4276430E+00
   0.5000000E+01   0.5000000E+01  -0.1428571E+01   0.2943421E+01   0.2158132E+01  -0.1631083E+01   0.2450162E+01  -0.2999033E+00
  -0.5722280E+00
   0.5000000E+01   0.5000000E+01  -0.7142859E+00   0.3967446E+01   0.2154044E+01  -0.2185023E+01   0.3311540E+01  -0.4012994E+00
  -0.7656960E+00
   0.5000000E+01   0.5000000E+01   0.0000000E+00   0.3967446E+01   0.2154044E+01  -0.2185023E+01   0.3311540E+01  -0.4012994E+00
  -0.7656960E+00
   0.5000000E+01   0.5000000E+01  -0.5000000E+01   0.9080557E+00   0.2214244E+01  -0.5447947E+00   0.7264736E+00  -0.1086081E+00
  -0.2371666E+00
   0.5000000E+01   0.5000000E+01  -0.4285714E+01   0.1253160E+01   0.2192230E+01  -0.7295915E+00   0.1018875E+01  -0.1453279E+00
  -0.3173512E+00
   0.5000000E+01   0.5000000E+01  -0.3571429E+01   0.1696147E+01   0.2189570E+01  -0.9838275E+00   0.1381665E+01  -0.1944625E+00
  -0.4246460E+00
   0.5000000E+01   0.5000000E+01  -0.2857143E+01   0.2275280E+01   0.2187938E+01  -0.1316719E+01   0.1855573E+01  -0.2602096E+00
  -0.5682175E+00
   0.5000000E+01   0.5000000E+01  -0.2142857E+01   0.3046917E+01   0.2185917E+01  -0.1758245E+01   0.2488429E+01  -0.3481854E+00
  -0.7603295E+00
   0.5000000E+01   0.5000000E+01  -0.1428571E+01   0.4093423E+01   0.2186190E+01  -0.2363051E+01   0.3342469E+01  -0.4659059E+00
  -0.1017395E+01
   0.5000000E+01   0.5000000E+01  -0.7142859E+00   0.5470823E+01   0.2183321E+01  -0.3145367E+01   0.4476223E+01  -0.6234269E+00
  -0.1361372E+01
   0.5000000E+01   0.5000000E+01   0.0000000E+00   0.5470823E+01   0.2183321E+01  -0.3145367E+01   0.4476223E+01  -0.6234269E+00
  -0.1361372E+01
   0.5000000E+01   0.4285714E+01  -0.5000000E+01   0.1002074E+01   0.2116752E+01  -0.5203121E+00   0.8564035E+00  -0.1418737E+00
  -0.2188962E+00