VARIABLES="w (rad/s)"
"A   1   1" "B   1   1"
"A   1   2" "B   1   2"
"A   1   3" "B   1   3"
"A   1   4" "B   1   4"
"A   1   5" "B   1   5"
"A   1   6" "B   1   6"
Zone t="Motion of body    1 in DoF   1",I=    40,F=POINT
  0.5000000E-01  0.3268814E+06  0.2757029E+01  0.3814697E-03 -0.6519258E-07 -0.2853775E+00 -0.8159908E-02  0.3509521E-02  0.7078052E-07  0.2393643E+06  0.3560521E+01 -0.1091766E+00 -0.3846362E-06
  0.9999999E-01  0.3287458E+06  0.2238500E+02  0.3051758E-03 -0.4097819E-06 -0.2646637E+00 -0.1863808E-01  0.1220703E-02  0.0000000E+00  0.2414560E+06  0.2887523E+02 -0.2494812E-01 -0.2540648E-05
  0.1500000E+00  0.3298164E+06  0.7718565E+02  0.2034505E-03  0.2384186E-06 -0.2273051E+00 -0.2732360E-01 -0.1220703E-02 -0.1549721E-05  0.2430515E+06  0.9941102E+02 -0.4343669E-01 -0.1038611E-04
  0.2000000E+00  0.3315048E+06  0.1885911E+03 -0.3814698E-03 -0.1132488E-05 -0.1487351E+00 -0.3287411E-01 -0.7629395E-03  0.2145767E-05  0.2452394E+06  0.2422913E+03 -0.6484986E-02 -0.1460314E-04
  0.2500000E+00  0.3343576E+06  0.3833639E+03  0.4272461E-03 -0.1192093E-06 -0.1840210E+00 -0.4434633E-01  0.1464844E-02 -0.8106232E-05  0.2482356E+06  0.4906557E+03  0.5847167E-01  0.1145601E-03
  0.3000000E+00  0.3369425E+06  0.6947898E+03 -0.9155273E-03  0.2622604E-05 -0.1488749E+00 -0.6125116E-01  0.2848307E-02  0.1907349E-05  0.2512506E+06  0.8854990E+03 -0.1795451E-01  0.1394749E-04
  0.3500000E+00  0.3404506E+06  0.1168673E+04 -0.6103516E-03  0.4768372E-05 -0.1363700E+00 -0.6079197E-01 -0.1743862E-02  0.1335144E-04  0.2549741E+06  0.1481647E+04  0.1220703E+00  0.5412102E-04
  0.4000001E+00  0.3450729E+06  0.1866669E+04  0.2288818E-03 -0.9536743E-05 -0.9716032E-01 -0.6746864E-01 -0.1373291E-02  0.2288818E-04  0.2598308E+06  0.2351564E+04 -0.4997252E-01  0.9441376E-04
  0.4500001E+00  0.3498076E+06  0.2871052E+04  0.6781682E-03 -0.2098083E-04 -0.6232366E-01 -0.7513428E-01 -0.8138018E-03 -0.3814697E-05  0.2650505E+06  0.3591424E+04 -0.1647949E-01 -0.1320362E-02
  0.5000001E+00  0.3547824E+06  0.4288190E+04  0.3662109E-03 -0.2098083E-04 -0.8142089E-01 -0.9083176E-01 -0.2929688E-02  0.1525879E-04  0.2701252E+06  0.5322541E+04 -0.8276366E-01  0.4291534E-03
  0.5500002E+00  0.3620451E+06  0.6304038E+04 -0.7213244E-03  0.5149841E-04 -0.1065341E+00 -0.1110916E+00  0.1553622E-02  0.7629395E-05  0.2777573E+06  0.7754833E+04 -0.1514781E-01 -0.1868248E-02
  0.5999997E+00  0.3698245E+06  0.9096620E+04 -0.6103518E-03  0.4196167E-04 -0.6200157E-01 -0.1100559E+00 -0.6103518E-03 -0.6103516E-04  0.2860085E+06  0.1108531E+05 -0.2777101E-01  0.8735657E-03
  0.6500000E+00  0.3777661E+06  0.1300712E+05  0.7512019E-03 -0.2670288E-04  0.6573017E-02 -0.9116745E-01 -0.3756010E-03  0.1678467E-03  0.2938002E+06  0.1567408E+05  0.6291316E-02  0.1987457E-02
  0.7000000E+00  0.3867411E+06  0.1845790E+05  0.1656668E-02  0.6866455E-04 -0.1382010E-01 -0.1193581E+00 -0.1395089E-02  0.1983643E-03  0.3028977E+06  0.2197800E+05  0.6801060E-02  0.6324768E-02
  0.7500001E+00  0.3973120E+06  0.2588385E+05 -0.9765624E-03 -0.6103516E-04 -0.2278646E-02 -0.1356659E+00  0.1627604E-02  0.0000000E+00  0.3136887E+06  0.3049919E+05  0.2311198E-01 -0.6637573E-02
  0.8000000E+00  0.4087062E+06  0.3618918E+05 -0.4577637E-03  0.3051758E-04 -0.1678467E-02 -0.1387405E+00 -0.1220703E-02  0.3051758E-04  0.3247593E+06  0.4208096E+05  0.1321411E+00 -0.7843018E-02
  0.8500000E+00  0.4203225E+06  0.5032542E+05 -0.1077091E-02 -0.7629395E-04  0.2843520E-01 -0.1628876E+00  0.1148897E-02  0.6103516E-04  0.3361911E+06  0.5767071E+05 -0.1019646E+00  0.1182556E-02
  0.9000000E+00  0.4307931E+06  0.6888994E+05  0.2712673E-03 -0.3051758E-04  0.3919813E-01 -0.1301117E+00  0.8138021E-03  0.4882812E-03  0.3458385E+06  0.7793425E+05 -0.2671983E-01 -0.1322937E-01
  0.9500000E+00  0.4389926E+06  0.9313955E+05  0.7709703E-03  0.3356934E-03  0.5634508E-01 -0.1315918E+00 -0.7709703E-03 -0.1220703E-03  0.3521427E+06  0.1038150E+06 -0.7606908E-01  0.8666992E-02
  0.1000000E+01  0.4455438E+06  0.1242322E+06  0.2441406E-03 -0.1831055E-03  0.5462646E-01 -0.1433105E+00  0.0000000E+00  0.0000000E+00  0.3575117E+06  0.1365258E+06 -0.7507323E-01 -0.7171631E-02
  0.1050000E+01  0.4477416E+06  0.1614243E+06  0.1162574E-02  0.2441406E-03  0.7905506E-01 -0.1329346E+00 -0.1627604E-02  0.7324219E-03  0.3584891E+06  0.1754800E+06 -0.2883185E-01  0.1065063E-01
  0.1100000E+01  0.4428400E+06  0.2039845E+06 -0.1220703E-02 -0.7324219E-03  0.9588069E-01 -0.1642151E+00  0.2219460E-03  0.1220703E-02  0.3511136E+06  0.2187818E+06 -0.8877841E-02 -0.1141357E-01
  0.1150000E+01  0.4309547E+06  0.2511684E+06 -0.1061481E-03  0.1098633E-02  0.1016368E+00 -0.6768799E-01 -0.2122962E-03 -0.1464844E-02  0.3365315E+06  0.2656321E+06  0.1443614E-01  0.6103516E-03
  0.1200000E+01  0.4124431E+06  0.2993179E+06 -0.7120768E-03  0.1220703E-02  0.1106262E+00 -0.3485107E-01 -0.2644857E-02  0.4882812E-03  0.3170619E+06  0.3136894E+06  0.4730225E-01 -0.1251221E-01
  0.1250000E+01  0.3872675E+06  0.3446210E+06  0.5859374E-03  0.1220703E-02  0.9504394E-01 -0.4791260E-01 -0.7812500E-03  0.2685547E-02  0.2899496E+06  0.3575730E+06 -0.4121093E-01  0.2227783E-01
  0.1300000E+01  0.3572563E+06  0.3852452E+06  0.5164514E-03 -0.1708984E-02  0.9728066E-01 -0.6860352E-01 -0.2817007E-03  0.0000000E+00  0.2582909E+06  0.3952299E+06  0.5436824E-01 -0.1071777E+00
  0.1350000E+01  0.3241823E+06  0.4193270E+06 -0.1356337E-03 -0.2441406E-03  0.9415239E-01 -0.8917236E-01 -0.8138022E-03 -0.9765625E-03  0.2257212E+06  0.4267184E+06  0.6872107E-02  0.3234863E-01
  0.1400000E+01  0.2911572E+06  0.4455807E+06 -0.8719308E-04  0.9765625E-03  0.8780344E-01 -0.5090332E-01 -0.6103516E-03 -0.1464844E-02  0.1932610E+06  0.4511482E+06 -0.3836496E-02 -0.6591797E-02
  0.1450000E+01  0.2594263E+06  0.4638609E+06  0.2315126E-03  0.1464844E-02  0.8433374E-01 -0.2117920E-01  0.2946524E-03 -0.1220703E-02  0.1620400E+06  0.4668807E+06  0.6650726E-01 -0.5187988E-01
  0.1500000E+01  0.2295380E+06  0.4751719E+06  0.8646646E-04 -0.1464844E-02  0.7489013E-01 -0.3295898E-02 -0.2441406E-03 -0.2929688E-02  0.1331525E+06  0.4746178E+06 -0.4443359E-01 -0.4638672E-02
  0.1550000E+01  0.2023600E+06  0.4805056E+06  0.4922190E-04  0.7324219E-03  0.7311913E-01 -0.1135254E-01  0.1968876E-04  0.0000000E+00  0.1081361E+06  0.4787791E+06 -0.4788306E-01 -0.1452637E-01
  0.1600000E+01  0.1784642E+06  0.4812004E+06 -0.1144409E-03  0.2441406E-03  0.7052898E-01 -0.1153564E-01 -0.9536743E-05  0.7324219E-03  0.8614838E+05  0.4792783E+06  0.1823425E-01 -0.1175537E+00
  0.1650000E+01  0.1576767E+06  0.4785032E+06 -0.6288470E-03  0.4882812E-03  0.5619627E-01 -0.1416016E-01 -0.1872669E-03  0.2685547E-02  0.6663070E+05  0.4756940E+06  0.0000000E+00 -0.4980469E-01
  0.1700000E+01  0.1392487E+06  0.4723380E+06  0.7180608E-03 -0.1342773E-02  0.5064180E-01  0.3509521E-02 -0.9379669E-03 -0.3662109E-03  0.5033565E+05  0.4695650E+06 -0.2132640E-01 -0.3186035E-01
  0.1750000E+01  0.1232725E+06  0.4644712E+06 -0.3487724E-04 -0.1464844E-02  0.6105424E-01  0.1843262E-01 -0.3989084E-03  0.1953125E-02  0.3614011E+05  0.4610517E+06 -0.5751256E-01  0.2624512E-01
  0.1800000E+01  0.1090171E+06  0.4543066E+06  0.3390842E-03 -0.8544922E-03  0.4855739E-01  0.1126099E-01 -0.8243985E-03  0.7324219E-03  0.2379967E+05  0.4534630E+06  0.5713569E-01  0.7128906E-01
  0.1850000E+01  0.9661145E+05  0.4428274E+06  0.4618877E-03  0.0000000E+00  0.4644034E-01  0.1165771E-01  0.3371368E-03  0.0000000E+00  0.1276934E+05  0.4447021E+06  0.6839237E-01  0.2587891E-01
  0.1900000E+01  0.8566362E+05  0.4298014E+06 -0.7709705E-03 -0.1342773E-02  0.3498379E-01  0.5187988E-02  0.2650211E-03  0.5493164E-03  0.2940656E+04  0.4335074E+06  0.3604287E-01 -0.2233887E-01
  0.1950000E+01  0.7599803E+05  0.4140470E+06 -0.3756010E-03  0.6103516E-03  0.4482759E-01 -0.9735107E-02 -0.3599510E-03  0.3051758E-03 -0.5402645E+04  0.4216716E+06  0.1646385E-01  0.1977539E-01
  0.2000000E+01  0.6792166E+05  0.3968347E+06  0.4272461E-03  0.1831055E-03  0.4232788E-01  0.1150513E-01 -0.8087159E-03 -0.6103516E-04 -0.1255440E+05  0.4074979E+06  0.3273010E-02  0.8642578E-01
Zone t="Motion of body    1 in DoF   2",I=    40,F=POINT
  0.5000000E-01  0.1382828E-03 -0.2182787E-07  0.3268816E+06  0.2757438E+01 -0.8430480E-02 -0.1657754E-06 -0.2393644E+06 -0.3560998E+01  0.0000000E+00  0.1490116E-07 -0.8732080E-02  0.8924227E-04
  0.9999999E-01  0.7152558E-04 -0.1164153E-06  0.3287457E+06  0.2238577E+02 -0.7667542E-02 -0.6407499E-06 -0.2414561E+06 -0.2887663E+02  0.2746582E-02 -0.5960464E-07 -0.4405499E-01 -0.1044683E-03
  0.1500000E+00 -0.3592173E-03  0.5941838E-06  0.3298165E+06  0.7718478E+02 -0.7324219E-02  0.2294779E-05 -0.2430515E+06 -0.9940804E+02  0.0000000E+00 -0.7152557E-06 -0.1104975E+00  0.9947037E-04
  0.2000000E+00  0.3266335E-03  0.1341105E-06  0.3315049E+06  0.1885919E+03  0.5493165E-02 -0.5662441E-05 -0.2452394E+06 -0.2422853E+03  0.1220703E-02 -0.6914139E-05  0.3349424E-01 -0.1962185E-03
  0.2500000E+00 -0.2059936E-03 -0.9015203E-06  0.3343578E+06  0.3833652E+03 -0.4058838E-02 -0.9775162E-05 -0.2482357E+06 -0.4906590E+03 -0.2441406E-03 -0.1430511E-05 -0.1165390E-02 -0.6479286E-03
  0.3000000E+00 -0.5722046E-04  0.2026558E-05  0.3369426E+06  0.6947910E+03  0.9206136E-02 -0.2622604E-05 -0.2512508E+06 -0.8855004E+03  0.8138021E-03 -0.2288818E-04  0.3496090E-01  0.7280558E-03
  0.3500000E+00  0.1122611E-02  0.2980232E-06  0.3404507E+06  0.1168672E+04 -0.2310617E-02  0.3957748E-04 -0.2549742E+06 -0.1481650E+04 -0.1569476E-02 -0.3814697E-05 -0.1897403E-01 -0.2178773E-03
  0.4000001E+00  0.2408027E-03 -0.1430511E-05  0.3450732E+06  0.1866669E+04  0.4882812E-02  0.4529953E-04 -0.2598310E+06 -0.2351566E+04 -0.1220703E-02 -0.3814697E-05  0.4658460E-01  0.4704148E-03
  0.4500001E+00  0.1593695E-02 -0.1239777E-04  0.3498076E+06  0.2871053E+04  0.4747177E-02 -0.2574921E-04 -0.2650506E+06 -0.3591426E+04 -0.1085069E-02  0.1144409E-04 -0.1914766E-02  0.2691150E-03
  0.5000001E+00 -0.8773803E-04  0.2014637E-04  0.3547827E+06  0.4288191E+04  0.4272460E-02 -0.5340576E-04 -0.2701252E+06 -0.5322542E+04  0.4882812E-03 -0.3814697E-05  0.5390644E-01  0.3800988E-03
  0.5500002E+00  0.1071583E-02 -0.3087521E-04  0.3620453E+06  0.6304042E+04  0.1165216E-02  0.8583069E-04 -0.2777576E+06 -0.7754831E+04 -0.8877838E-03  0.1449585E-03  0.4305665E-01  0.3893197E-02
  0.5999997E+00 -0.4959109E-03  0.4291534E-05  0.3698248E+06  0.9096631E+04 -0.2034506E-02  0.1087189E-03 -0.2860088E+06 -0.1108531E+05 -0.4069012E-03 -0.7629395E-04  0.1045911E+00  0.8796453E-03
  0.6500000E+00 -0.3844041E-03 -0.7438660E-04  0.3777662E+06  0.1300713E+05 -0.5023662E-02  0.6141663E-03 -0.2938003E+06 -0.1567407E+05  0.1690204E-02  0.1068115E-03  0.1335335E+00  0.4172325E-05
  0.7000000E+00 -0.4468645E-03  0.3623962E-04  0.3867413E+06  0.1845791E+05  0.3138951E-02 -0.5073547E-03 -0.3028980E+06 -0.2197801E+05  0.1046317E-02 -0.1831055E-03  0.5762918E-01  0.1281142E-02
  0.7500001E+00  0.5137125E-03 -0.4196167E-04  0.3973121E+06  0.2588388E+05 -0.6306966E-02  0.1220703E-02 -0.3136891E+06 -0.3049921E+05  0.2929687E-02  0.3051758E-03 -0.4853566E-02  0.1450777E-02
  0.8000000E+00 -0.2007484E-02  0.1907349E-04  0.4087065E+06  0.3618919E+05 -0.2174377E-02 -0.3662109E-03 -0.3247594E+06 -0.4208100E+05 -0.1220703E-02 -0.6103516E-04  0.9862185E-02 -0.1099586E-02
  0.8500000E+00 -0.1633588E-02  0.1850128E-03  0.4203228E+06  0.5032545E+05 -0.1005285E-02  0.1678467E-03 -0.3361912E+06 -0.5767074E+05 -0.2297794E-02  0.4272461E-03  0.7597082E-01 -0.3199577E-03
  0.9000000E+00 -0.5086263E-04 -0.3337860E-03  0.4307933E+06  0.6888999E+05  0.4272461E-02 -0.8392334E-03 -0.3458386E+06 -0.7793429E+05 -0.1085069E-02 -0.1831055E-03 -0.8519490E-03  0.1338768E-01
  0.9500000E+00  0.1019930E-02 -0.2117157E-03  0.4389928E+06  0.9313962E+05 -0.1355623E-01  0.4119873E-03 -0.3521429E+06 -0.1038151E+06  0.1541941E-02  0.7324219E-03 -0.1140394E-02 -0.8048058E-02
  0.1000000E+01  0.1556396E-02  0.9918213E-04  0.4455438E+06  0.1242324E+06 -0.1220703E-02 -0.4089355E-02 -0.3575119E+06 -0.1365259E+06 -0.3173828E-02 -0.4882812E-03  0.1083012E+00  0.5054474E-03
  0.1050000E+01  0.2492269E-02  0.1113892E-02  0.4477420E+06  0.1614244E+06 -0.1784552E-01  0.2716064E-02 -0.3584892E+06 -0.1754801E+06 -0.1395089E-02 -0.2441406E-03  0.1141376E+00 -0.1936722E-01
  0.1100000E+01  0.6242232E-04 -0.1609802E-02  0.4428403E+06  0.2039847E+06  0.1015403E-01  0.8850098E-03 -0.3511138E+06 -0.2187819E+06  0.2219460E-03  0.7324219E-03  0.1897292E-01 -0.1295090E-02
  0.1150000E+01  0.4577637E-03 -0.8087158E-03  0.4309547E+06  0.2511685E+06 -0.3290592E-02  0.1342773E-02 -0.3365317E+06 -0.2656322E+06 -0.4245924E-03  0.2441406E-03  0.1131638E-01 -0.5149841E-04
  0.1200000E+01 -0.1780192E-03 -0.1907349E-03  0.4124431E+06  0.2993179E+06 -0.1831055E-02  0.1080322E-01 -0.3170619E+06 -0.3136896E+06  0.3662110E-02  0.4882812E-03  0.8560340E-01  0.2996826E-01
  0.1250000E+01 -0.3845214E-03  0.1518250E-02  0.3872675E+06  0.3446212E+06 -0.3027343E-02 -0.5432129E-02 -0.2899497E+06 -0.3575733E+06 -0.5859374E-03  0.2441406E-03  0.3527527E-01 -0.1556396E-02
  0.1300000E+01  0.3403884E-03 -0.2136230E-02  0.3572563E+06  0.3852455E+06  0.3286509E-02 -0.1715088E-01 -0.2582907E+06 -0.3952302E+06  0.9390024E-03 -0.2441406E-03  0.9756823E-03  0.2517319E-01
  0.1350000E+01 -0.1212226E-02  0.0000000E+00  0.3241824E+06  0.4193270E+06  0.7188586E-02  0.1190186E-01 -0.2257212E+06 -0.4267186E+06  0.2712674E-03  0.4638672E-02  0.1139503E+00  0.1434555E+00
  0.1400000E+01  0.1587187E-03 -0.2593994E-03  0.2911572E+06  0.4455809E+06  0.7629395E-03 -0.6713867E-03 -0.1932610E+06 -0.4511484E+06 -0.1046317E-02  0.2929688E-02  0.8084094E-03 -0.4995346E-01
  0.1450000E+01 -0.8418642E-04  0.9765625E-03  0.2594263E+06  0.4638611E+06 -0.1294366E-02  0.5615234E-02 -0.1620401E+06 -0.4668809E+06 -0.2104660E-03 -0.1220703E-02 -0.1492336E-02 -0.1114159E+00
  0.1500000E+01 -0.5849202E-04 -0.1449585E-02  0.2295381E+06  0.4751721E+06  0.1068115E-02 -0.3967285E-02 -0.1331526E+06 -0.4746181E+06  0.8138020E-04 -0.3417969E-02  0.2166748E-02  0.1243591E-02
  0.1550000E+01 -0.2461095E-04  0.1068115E-03  0.2023601E+06  0.4805056E+06  0.2953314E-04  0.1647949E-02 -0.1081361E+06 -0.4787792E+06 -0.7875504E-04 -0.1464844E-02  0.1556027E-01 -0.1869202E-03
  0.1600000E+01 -0.2145767E-03 -0.1007080E-02  0.1784642E+06  0.4812004E+06  0.2431870E-03 -0.9155273E-03 -0.8614842E+05 -0.4792785E+06  0.4386902E-03 -0.4882812E-03 -0.2191663E-01  0.8592606E-01
  0.1650000E+01  0.2126983E-03  0.1037598E-02  0.1576768E+06  0.4785034E+06 -0.2531572E-03 -0.6256104E-02 -0.6663072E+05 -0.4756941E+06  0.2681848E-03 -0.1464844E-02  0.3629511E-01 -0.7610321E-02
  0.1700000E+01  0.1884909E-03  0.1815796E-02  0.1392487E+06  0.4723382E+06 -0.2757241E-03  0.5371094E-02 -0.5033565E+05 -0.4695652E+06  0.2008326E-03 -0.4882812E-03 -0.3659193E-01  0.3607941E-01
  0.1750000E+01  0.8196150E-03  0.2517700E-03  0.1232726E+06  0.4644712E+06  0.1411438E-03  0.6713867E-03 -0.3614016E+05 -0.4610520E+06  0.1940046E-03  0.3662109E-03 -0.3425163E-01  0.3369904E-01
  0.1800000E+01  0.8053251E-03  0.2517700E-03  0.1090171E+06  0.4543064E+06  0.2352397E-03  0.1007080E-02 -0.2379969E+05 -0.4534631E+06  0.7777745E-03  0.8544922E-03 -0.4982631E-01 -0.1259232E+00
  0.1850000E+01  0.1402159E-03 -0.3051758E-03  0.9661149E+05  0.4428275E+06  0.1270707E-03  0.4882812E-02 -0.1276934E+05 -0.4447023E+06 -0.6428282E-03 -0.9765625E-03  0.8597504E-01  0.1078548E+00
  0.1900000E+01  0.3372996E-03 -0.7247925E-04  0.8566362E+05  0.4298015E+06 -0.4447135E-03 -0.5035400E-03 -0.2940666E+04 -0.4335074E+06  0.3935162E-03  0.9765625E-03  0.1059482E-01  0.1288414E-02
  0.1950000E+01  0.6181767E-03 -0.9536743E-04  0.7599808E+05  0.4140472E+06  0.3521260E-03  0.5050659E-02  0.5402645E+04 -0.4216716E+06  0.7903272E-03 -0.1831055E-02  0.2922646E-02  0.6360865E-01
  0.2000000E+01  0.3967285E-03 -0.5912781E-04  0.6792168E+05  0.3968348E+06  0.1087189E-02  0.6668091E-02  0.1255442E+05 -0.4074981E+06  0.6103516E-04 -0.3662109E-03 -0.9807588E-02  0.6316185E-01
Zone t="Motion of body    1 in DoF   3",I=    40,F=POINT
  0.5000000E-01 -0.4196167E-01 -0.4310608E-03  0.1678467E-01  0.6866455E-04  0.5659048E+06  0.6307966E+04 -0.8789062E-01  0.3738403E-02 -0.3826904E+00  0.1159668E-02 -0.6294250E-02  0.4320145E-03
  0.9999999E-01 -0.3723145E-01 -0.6790161E-03  0.3250122E-01  0.2670288E-03  0.5140476E+06  0.1257183E+05 -0.1983643E+00 -0.2441406E-02 -0.3228760E+00  0.1495361E-02 -0.5989075E-02 -0.3528595E-03
  0.1500000E+00 -0.5177815E-01 -0.6790161E-03 -0.8850097E-02 -0.3814697E-03  0.4821540E+06  0.1876702E+05 -0.2978515E+00 -0.8911133E-02 -0.5533854E+00 -0.2532959E-02  0.7451375E-02 -0.3547668E-03
  0.2000000E+00 -0.4020691E-01  0.3616333E-02  0.5264283E-02  0.1235962E-02  0.4580744E+06  0.2487107E+05  0.7324219E-01 -0.8239746E-02 -0.5297852E+00  0.4516602E-02  0.6866456E-03 -0.1983643E-03
  0.2500000E+00 -0.2343750E-01  0.1983643E-02  0.1794433E-01 -0.3051758E-04  0.4387592E+06  0.3085271E+05  0.5566406E-01 -0.2392578E-01 -0.4477539E+00  0.5249023E-02  0.5767822E-02  0.2086639E-02
  0.3000000E+00 -0.3031413E-01 -0.1693726E-02 -0.7324219E-02 -0.2777100E-02  0.4219066E+06  0.3669801E+05  0.9399414E-01  0.3948975E-01 -0.4374186E+00  0.5126953E-02 -0.2263387E-02  0.4272461E-03
  0.3500000E+00 -0.6391253E-01 -0.5493164E-03 -0.8719309E-03  0.3051758E-02  0.4089637E+06  0.4245932E+05  0.2525112E+00  0.2587891E-01 -0.5908203E+00 -0.7995605E-02 -0.1961845E-02 -0.1068115E-03
  0.4000001E+00 -0.2883910E-01 -0.2044678E-02 -0.4653930E-02  0.1922607E-02  0.3959872E+06  0.4789415E+05 -0.6103514E-01 -0.9643555E-02 -0.4766845E+00 -0.1489258E-01 -0.3128051E-02 -0.2746582E-03
  0.4500001E+00 -0.2841525E-01  0.5706787E-02 -0.1559787E-02  0.1159668E-02  0.3859383E+06  0.5337493E+05  0.1399739E+00  0.1867676E-01 -0.5376518E+00  0.2209473E-01 -0.2119276E-02 -0.1098633E-02
  0.5000001E+00 -0.4107666E-01 -0.4730225E-02  0.4333496E-02  0.4180908E-02  0.3741397E+06  0.5822031E+05 -0.1977539E+00  0.2905273E-01 -0.3847656E+00  0.2490234E-01  0.2487182E-02  0.2975464E-03
  0.5500002E+00 -0.5082562E-01  0.7324219E-02  0.9876595E-02 -0.4272461E-02  0.3657818E+06  0.6318683E+05  0.7990055E-01  0.5981445E-02 -0.4203657E+00  0.3662109E-02  0.1210993E-01  0.9307861E-03
  0.5999997E+00 -0.4104616E-01 -0.4577637E-02 -0.1576742E-02 -0.3692627E-02  0.3558117E+06  0.6748606E+05 -0.5289716E-02 -0.1647949E-01 -0.5151369E+00 -0.3039551E-01 -0.3191631E-02  0.5035400E-03
  0.6500000E+00 -0.5549504E-01 -0.5676270E-02  0.6807767E-02  0.5615234E-02  0.3465309E+06  0.7115218E+05  0.1585036E+00  0.2490234E-01 -0.5679086E+00 -0.1586914E-02 -0.6831243E-02 -0.7324219E-03
  0.7000000E+00 -0.4948207E-01 -0.7080078E-02 -0.5275181E-02 -0.8544922E-03  0.3398646E+06  0.7557551E+05  0.5580357E+00  0.6457520E-01 -0.5803571E+00 -0.1220703E-03  0.1743862E-03  0.2258301E-02
  0.7500001E+00 -0.7885741E-01 -0.1159668E-02 -0.1688639E-01 -0.1153564E-01  0.3300987E+06  0.7753129E+05  0.1969401E+00  0.4882812E-01 -0.4713541E+00  0.5371094E-02 -0.3845214E-02 -0.1876831E-02
  0.8000000E+00 -0.4966736E-01 -0.8666992E-02 -0.4959106E-03 -0.6774902E-02  0.3227692E+06  0.7919584E+05  0.1766968E+00  0.2050781E-01 -0.5508423E+00  0.1647949E-01  0.4501343E-02  0.1800537E-02
  0.8500000E+00 -0.6182503E-01 -0.2398682E-01  0.9352740E-02  0.3967285E-02  0.3169542E+06  0.8232378E+05 -0.8961397E-01  0.4687500E-01 -0.5267693E+00  0.3173828E-02  0.4173728E-02  0.3707886E-02
  0.9000000E+00 -0.6415473E-01 -0.3460693E-01  0.1593696E-02 -0.7141113E-02  0.3086314E+06  0.8096580E+05  0.5425347E-03 -0.2465820E-01 -0.4280599E+00  0.1098633E-01  0.1229180E-02 -0.1037598E-02
  0.9500000E+00 -0.4524632E-01 -0.2252197E-01 -0.4513389E-02  0.2258301E-02  0.3030074E+06  0.7948544E+05 -0.1328639E+00  0.7348633E-01 -0.3633840E+00  0.8300781E-02  0.5782278E-03 -0.2288818E-02
  0.1000000E+01 -0.4658508E-01 -0.1580811E-01  0.6401062E-02 -0.3271484E-01  0.2987684E+06  0.8070374E+05  0.2392578E-01  0.9277344E-02 -0.4255371E+00 -0.3125000E-01 -0.1480102E-02  0.1922607E-02
  0.1050000E+01 -0.6501697E-01 -0.4528809E-01  0.1475016E-02  0.1617432E-01  0.2931180E+06  0.7589539E+05  0.7952008E-01 -0.9155273E-02 -0.5057198E+00 -0.2978516E-01  0.1438686E-02 -0.1861572E-02
  0.1100000E+01 -0.5001415E-01 -0.4364014E-01  0.1268278E-02 -0.2624512E-02  0.2899282E+06  0.7096922E+05  0.3262607E-01  0.6225586E-02 -0.5575284E+00  0.1416016E-01  0.2569719E-02  0.6988525E-02
  0.1150000E+01 -0.7819135E-01 -0.7037354E-01 -0.6322447E-02 -0.5676270E-02  0.2878570E+06  0.6839970E+05  0.1246179E+00 -0.3222656E-01 -0.5398693E+00 -0.3015137E-01 -0.5804975E-04  0.6469727E-02
  0.1200000E+01 -0.5939007E-01 -0.9094238E-01  0.1443227E-02  0.7324219E-03  0.2851500E+06  0.6384861E+05 -0.5635580E-01  0.2038574E-01 -0.4683431E+00 -0.7958984E-01  0.1255671E-03 -0.2899170E-02
  0.1250000E+01 -0.8063354E-01 -0.1463013E+00 -0.8666991E-03  0.9155273E-03  0.2846174E+06  0.5666707E+05 -0.1736328E+00  0.2685547E-02 -0.5720702E+00 -0.1005859E+00 -0.6500243E-03  0.6866455E-02
  0.1300000E+01 -0.3678542E-01 -0.8374023E-01 -0.1162016E-02 -0.8544922E-03  0.2855119E+06  0.5152542E+05  0.6704478E-01  0.2319336E-02 -0.4482798E+00 -0.5444336E-01 -0.5252545E-03 -0.5462646E-02
  0.1350000E+01 -0.2456100E-01 -0.6756592E-01  0.1808449E-03 -0.1550293E-01  0.2845788E+06  0.4839238E+05  0.1085070E-02 -0.1708984E-01 -0.4694734E+00 -0.3710938E-01  0.5368834E-03  0.8850098E-03
  0.1400000E+01 -0.1362392E-01 -0.8575439E-01 -0.1089914E-03  0.8056641E-02  0.2858011E+06  0.4151366E+05  0.2755302E-01  0.3222656E-01 -0.5336217E+00 -0.8728027E-01  0.1580375E-03 -0.3631592E-02
  0.1450000E+01 -0.3367457E-03 -0.1077881E+00  0.4419787E-03 -0.8605957E-02  0.2879379E+06  0.3570889E+05  0.7610451E-01 -0.3277588E-01 -0.4354121E+00 -0.6372070E-01  0.6313981E-04 -0.4577637E-02
  0.1500000E+01 -0.2705892E-02 -0.1125488E+00  0.2644857E-03 -0.5249023E-02  0.2902755E+06  0.3148701E+05  0.3255208E-01  0.1068115E-01 -0.4202473E+00 -0.7580566E-01 -0.6103515E-04  0.3448486E-02
  0.1550000E+01  0.4154328E-02 -0.7556152E-01 -0.7284841E-03  0.1525879E-02  0.2909228E+06  0.2796148E+05 -0.8064516E-01  0.4882812E-02 -0.4687500E+00 -0.3057861E-01  0.1181326E-03 -0.1159668E-02
  0.1600000E+01  0.1365662E-01 -0.8178711E-01 -0.9536743E-04 -0.2624512E-02  0.2931312E+06  0.2354022E+05 -0.9155273E-01  0.4394531E-02 -0.4559326E+00 -0.5493164E-01 -0.3623963E-03 -0.7019043E-03
  0.1650000E+01  0.9895093E-02 -0.9783936E-01 -0.1479640E-03  0.3845215E-02  0.2957185E+06  0.1995034E+05 -0.1290246E+00  0.2502441E-01 -0.3820431E+00 -0.6164551E-01 -0.2219460E-03 -0.2136230E-02
  0.1700000E+01  0.2721450E-01 -0.9698486E-01  0.2513213E-03  0.3082275E-02  0.2979072E+06  0.1704336E+05 -0.2030676E+00 -0.1147461E-01 -0.5115465E+00 -0.7760620E-01  0.2064425E-03  0.4272461E-03
  0.1750000E+01  0.3477260E-01 -0.6488037E-01 -0.3487724E-04  0.5187988E-03  0.2995828E+06  0.1434713E+05 -0.7505582E-01  0.6347656E-02 -0.3582590E+00 -0.5279541E-01  0.8719310E-04 -0.5493164E-03
  0.1800000E+01  0.2982246E-01 -0.1149902E+00  0.4069011E-03 -0.7324219E-03  0.3007091E+06  0.1193239E+05  0.3200955E-01 -0.1531982E-01 -0.3553603E+00 -0.9765625E-01  0.1271566E-03 -0.5645752E-03
  0.1850000E+01  0.2532135E-01 -0.5023193E-01  0.4288958E-03  0.1037598E-01  0.3026071E+06  0.1048331E+05  0.1111170E+00  0.3814697E-02 -0.4178104E+00 -0.4663086E-01  0.4948798E-04 -0.1983643E-03
  0.1900000E+01  0.1686498E-01 -0.7482910E-01 -0.1156456E-02  0.1342773E-02  0.3045774E+06  0.9219295E+04  0.3417969E-01  0.6088257E-02 -0.4484478E+00 -0.7029724E-01  0.3533615E-03 -0.4882812E-03
  0.1950000E+01  0.2200396E-01 -0.7446289E-01 -0.2003205E-02  0.4425049E-02  0.3059884E+06  0.8208424E+04  0.2739384E+00  0.8026123E-02 -0.4437100E+00 -0.6811523E-01  0.5634016E-03 -0.3036499E-02
  0.2000000E+01  0.2308655E-01  0.1174927E-01 -0.2441407E-03 -0.2883911E-02  0.3085465E+06  0.6352318E+04  0.4125977E-01 -0.1107788E-01 -0.4328614E+00  0.2455139E-01  0.1983643E-03  0.7629395E-04
Zone t="Motion of body    1 in DoF   4",I=    40,F=POINT
  0.5000000E-01 -0.1111030E-02  0.5820766E-08 -0.2397509E+06 -0.3593251E+01 -0.5142211E-01  0.4749745E-07  0.1505977E+07  0.4642919E+01 -0.1037597E-01 -0.1490116E-07  0.2089095E+00  0.1306353E-03
  0.9999999E-01  0.1478195E-03 -0.2980232E-07 -0.2423228E+06 -0.2913307E+02  0.1014710E+00 -0.2831221E-06  0.1514692E+07  0.3758126E+02 -0.1708985E-01  0.4768372E-06  0.2144480E+00  0.1336753E-03
  0.1500000E+00  0.7025401E-03  0.1620501E-06 -0.2440897E+06 -0.1002547E+03  0.1322428E-01 -0.3427267E-05  0.1516524E+07  0.1291321E+03  0.9765625E-02  0.9536743E-06  0.2342836E+00 -0.2492592E-03
  0.2000000E+00  0.6437302E-03 -0.1490116E-07 -0.2464529E+06 -0.2442860E+03  0.2288819E-01  0.3218651E-05  0.1519815E+07  0.3138584E+03 -0.1831055E-02 -0.2384186E-06  0.1950431E+00 -0.2425835E-03
  0.2500000E+00  0.1571655E-02  0.8493662E-06 -0.2495298E+06 -0.4947687E+03  0.3637695E-01  0.1358986E-04  0.1524550E+07  0.6332332E+03 -0.4882812E-02 -0.9536743E-06  0.1851415E+00  0.6373636E-03
  0.3000000E+00  0.1017253E-02 -0.3442168E-05 -0.2525269E+06 -0.8928815E+03 -0.4394531E-01  0.3695488E-04  0.1526397E+07  0.1138012E+04 -0.2034505E-01  0.1907349E-04  0.1890214E+00  0.2079606E-03
  0.3500000E+00  0.1346043E-02  0.9506941E-05 -0.2562144E+06 -0.1494230E+04 -0.7411412E-01  0.1001358E-04  0.1529782E+07  0.1894329E+04 -0.2790179E-02  0.5340576E-04  0.1072434E+00 -0.1424998E-03
  0.4000001E+00  0.6914138E-03 -0.2324581E-05 -0.2611158E+06 -0.2371970E+04  0.4974364E-01 -0.5245209E-05  0.1536305E+07  0.2987794E+04 -0.1708984E-01  0.2670288E-04  0.9924290E-01  0.9813607E-03
  0.4500001E+00 -0.1381768E-02  0.1817942E-04 -0.2664357E+06 -0.3621943E+04 -0.9684242E-01 -0.1573563E-03  0.1541374E+07  0.4532358E+04  0.8680553E-02 -0.3814697E-05  0.1003731E+00  0.4702806E-03
  0.5000001E+00  0.1804352E-02 -0.2229214E-04 -0.2717146E+06 -0.5370920E+04  0.1538086E-01  0.9536743E-04  0.1546614E+07  0.6666124E+04 -0.1074219E-01  0.7629395E-05  0.6740570E-01  0.3898144E-03
  0.5500002E+00 -0.2250671E-02  0.1907349E-05 -0.2793314E+06 -0.7822567E+04  0.4794033E-01  0.1850128E-03  0.1555740E+07  0.9623478E+04  0.6214486E-02 -0.3051758E-04  0.1959349E+00 -0.8648634E-03
  0.5999997E+00 -0.1637142E-02 -0.4053116E-05 -0.2872889E+06 -0.1118733E+05 -0.1139323E-01  0.3509521E-03  0.1561898E+07  0.1363002E+05 -0.8138024E-02  0.6103516E-04  0.2276183E+00  0.1493692E-03
  0.6500000E+00 -0.2934382E-04  0.2002716E-04 -0.2956436E+06 -0.1582521E+05  0.4263071E-01 -0.1907349E-03  0.1572897E+07  0.1906645E+05  0.1427284E-01  0.2899170E-03  0.1893630E+00 -0.4646063E-02
  0.7000000E+00 -0.1542227E-02 -0.3671646E-04 -0.3049311E+06 -0.2218250E+05  0.3784179E-01 -0.5264282E-03  0.1581969E+07  0.2645182E+05 -0.1046317E-01  0.1525879E-03  0.2964483E+00 -0.3910065E-03
  0.7500001E+00 -0.2156575E-02  0.1220703E-03 -0.3153639E+06 -0.3081583E+05  0.3808593E-01 -0.8010864E-03  0.1589787E+07  0.3627417E+05 -0.1236979E-01  0.1525879E-03  0.1507632E+00 -0.1671553E-02
  0.8000000E+00  0.8440018E-03 -0.1478195E-03 -0.3267943E+06 -0.4253037E+05 -0.7537842E-01  0.1472473E-02  0.1603876E+07  0.4940405E+05  0.1708984E-01  0.2441406E-03  0.2139378E+00 -0.5841255E-03
  0.8500000E+00 -0.2338185E-02 -0.4234314E-03 -0.3382372E+06 -0.5820767E+05  0.6362017E-01  0.4272461E-03  0.1614375E+07  0.6685664E+05  0.8042280E-02  0.0000000E+00  0.1288201E+00 -0.1177788E-03
  0.9000000E+00  0.9240044E-03 -0.4425049E-03 -0.3479425E+06 -0.7874688E+05  0.1925998E-01  0.1068115E-02  0.1620707E+07  0.8906755E+05  0.0000000E+00  0.2441406E-03  0.2376747E+00  0.2715111E-02
  0.9500000E+00  0.1951519E-02 -0.1335144E-04 -0.3551979E+06 -0.1050859E+06 -0.2569901E-01 -0.2166748E-02  0.1629281E+07  0.1171406E+06  0.5139803E-02 -0.2441406E-03  0.2037249E+00 -0.9503365E-02
  0.1000000E+01  0.3738403E-03 -0.1277924E-02 -0.3603965E+06 -0.1379622E+06 -0.7275390E-01  0.2197266E-02  0.1632783E+07  0.1520844E+06  0.1269531E-01 -0.1220703E-02  0.1452446E+00 -0.3108215E-01
  0.1050000E+01  0.1540411E-02  0.3890991E-03 -0.3607371E+06 -0.1772275E+06 -0.6440662E-01 -0.5493164E-03  0.1627136E+07  0.1922818E+06 -0.1302083E-01  0.1098633E-02  0.1907022E+00  0.9315491E-02
  0.1100000E+01 -0.2843683E-03 -0.2075195E-02 -0.3538445E+06 -0.2213946E+06 -0.2996271E-01  0.3173828E-02  0.1620416E+07  0.2374101E+06 -0.7102273E-02 -0.2441406E-03  0.1467809E+00 -0.4713058E-01
  0.1150000E+01 -0.2321990E-03  0.4272461E-03 -0.3396552E+06 -0.2687522E+06 -0.6347657E-01  0.2197266E-02  0.1606900E+07  0.2844471E+06 -0.1698370E-02 -0.1708984E-02  0.2185739E+00 -0.2902794E-01
  0.1200000E+01 -0.1233419E-02 -0.1373291E-02 -0.3192690E+06 -0.3167014E+06  0.1139323E-01 -0.9399414E-02  0.1579441E+07  0.3312342E+06  0.1627604E-02  0.0000000E+00  0.2014017E+00 -0.3206253E-01
  0.1250000E+01  0.1550293E-02 -0.1022339E-02 -0.2917389E+06 -0.3616757E+06  0.4726562E-01  0.6103516E-02  0.1550382E+07  0.3747738E+06  0.2968750E-01 -0.1953125E-02  0.3008102E+00 -0.2149582E-01
  0.1300000E+01 -0.6631705E-03  0.3051758E-03 -0.2599918E+06 -0.4002428E+06  0.6009616E-01  0.1220703E-03  0.1522928E+07  0.4111412E+06 -0.3004808E-02 -0.7324219E-03  0.1894467E+00  0.3036499E-02
  0.1350000E+01 -0.9847572E-03 -0.1831055E-03 -0.2272684E+06 -0.4316159E+06  0.6438079E-01  0.3295898E-02  0.1488861E+07  0.4403614E+06  0.9403937E-02 -0.2197266E-02  0.1842202E+00 -0.5596161E-02
  0.1400000E+01 -0.9686607E-03  0.2807617E-02 -0.1941978E+06 -0.4559961E+06  0.1569476E-01  0.4272461E-02  0.1451299E+07  0.4593273E+06 -0.5580357E-02 -0.1464844E-02  0.1353567E+00 -0.3431702E-01
  0.1450000E+01  0.4143550E-03 -0.3005981E-02 -0.1622188E+06 -0.4721848E+06 -0.1464844E-01 -0.3967285E-02  0.1421602E+07  0.4741319E+06 -0.2693965E-02 -0.1953125E-02  0.1922615E+00  0.6192017E-01
  0.1500000E+01  0.5404154E-03  0.2899170E-03 -0.1330269E+06 -0.4805846E+06  0.3076172E-01  0.1092529E-01  0.1399590E+07  0.4829269E+06  0.1302083E-02  0.1953125E-02  0.9719307E-01 -0.1194000E-01