VARIABLES="Theta (rad)" "ABS(HKochin)" "ANGLE(HKochin)"
Zone t="Motion of body    1 at frequency  0.0500 rad/s",I=   181,F=POINT
 -0.3141593E+01  0.1499524E+00  0.1570801E+01
 -0.3106686E+01  0.1487019E+00  0.1570820E+01
 -0.3071780E+01  0.1521964E+00  0.1570830E+01
 -0.3036873E+01  0.1463901E+00  0.1570814E+01
 -0.3001966E+01  0.1409266E+00  0.1570813E+01
 -0.2967060E+01  0.1421306E+00  0.1570799E+01
 -0.2932153E+01  0.1484454E+00  0.1570811E+01
 -0.2897247E+01  0.1461494E+00  0.1570817E+01
 -0.2862340E+01  0.1413211E+00  0.1570843E+01
 -0.2827433E+01  0.1421964E+00  0.1570819E+01
 -0.2792527E+01  0.1392496E+00  0.1570807E+01
 -0.2757620E+01  0.1366556E+00  0.1570820E+01
 -0.2722714E+01  0.1346500E+00  0.1570841E+01
 -0.2687807E+01  0.1325027E+00  0.1570791E+01
 -0.2652900E+01  0.1294326E+00  0.1570807E+01
 -0.2617994E+01  0.1283521E+00  0.1570815E+01
 -0.2583087E+01  0.1268304E+00  0.1570813E+01
 -0.2548181E+01  0.1223996E+00  0.1570806E+01
 -0.2513274E+01  0.1205739E+00  0.1570819E+01
 -0.2478368E+01  0.1161831E+00  0.1570788E+01
 -0.2443461E+01  0.1151527E+00  0.1570819E+01
 -0.2408554E+01  0.1093248E+00  0.1570799E+01
 -0.2373648E+01  0.1069478E+00  0.1570806E+01
 -0.2338741E+01  0.1032412E+00  0.1570805E+01
 -0.2303835E+01  0.9835374E-01  0.1570812E+01
 -0.2268928E+01  0.9690414E-01  0.1570801E+01
 -0.2234021E+01  0.8998230E-01  0.1570822E+01
 -0.2199115E+01  0.8686217E-01  0.1570817E+01
 -0.2164208E+01  0.8175404E-01  0.1570772E+01
 -0.2129302E+01  0.7802719E-01  0.1570745E+01
 -0.2094395E+01  0.7337189E-01  0.1570768E+01
 -0.2059489E+01  0.6735247E-01  0.1570789E+01
 -0.2024582E+01  0.6391881E-01  0.1570791E+01
 -0.1989675E+01  0.5893213E-01  0.1570796E+01
 -0.1954769E+01  0.5577930E-01  0.1570728E+01
 -0.1919862E+01  0.5037702E-01  0.1570827E+01
 -0.1884956E+01  0.4397142E-01  0.1570688E+01
 -0.1850049E+01  0.3993651E-01  0.1570672E+01
 -0.1815143E+01  0.3839788E-01  0.1570688E+01
 -0.1780236E+01  0.3233263E-01  0.1570545E+01
 -0.1745329E+01  0.2440238E-01  0.1570669E+01
 -0.1710423E+01  0.2316235E-01  0.1570819E+01
 -0.1675516E+01  0.1728756E-01  0.1570222E+01
 -0.1640610E+01  0.1184771E-01  0.1570359E+01
 -0.1605703E+01  0.4892628E-02  0.1569544E+01
 -0.1570796E+01  0.7769137E-05  0.3390211E-02
 -0.1535890E+01  0.4891402E-02 -0.1569092E+01
 -0.1500983E+01  0.1195417E-01 -0.1569906E+01
 -0.1466077E+01  0.1724607E-01 -0.1570258E+01
 -0.1431170E+01  0.2313781E-01 -0.1570425E+01
 -0.1396263E+01  0.2440046E-01 -0.1570351E+01
 -0.1361357E+01  0.3234795E-01 -0.1570488E+01
 -0.1326450E+01  0.3839549E-01 -0.1570644E+01
 -0.1291544E+01  0.3992621E-01 -0.1570563E+01
 -0.1256637E+01  0.4395721E-01 -0.1570665E+01
 -0.1221731E+01  0.5037373E-01 -0.1570751E+01
 -0.1186824E+01  0.5575662E-01 -0.1570580E+01
 -0.1151917E+01  0.5891958E-01 -0.1570679E+01
 -0.1117011E+01  0.6391739E-01 -0.1570651E+01
 -0.1082104E+01  0.6736561E-01 -0.1570669E+01
 -0.1047198E+01  0.7336629E-01 -0.1570665E+01
 -0.1012291E+01  0.7804780E-01 -0.1570663E+01
 -0.9773844E+00  0.8176670E-01 -0.1570690E+01
 -0.9424778E+00  0.8686552E-01 -0.1570657E+01
 -0.9075713E+00  0.8998632E-01 -0.1570625E+01
 -0.8726646E+00  0.9691034E-01 -0.1570680E+01
 -0.8377581E+00  0.9832470E-01 -0.1570669E+01
 -0.8028514E+00  0.1032423E+00 -0.1570655E+01
 -0.7679449E+00  0.1069529E+00 -0.1570695E+01
 -0.7330383E+00  0.1093140E+00 -0.1570660E+01
 -0.6981317E+00  0.1151354E+00 -0.1570678E+01
 -0.6632251E+00  0.1161720E+00 -0.1570687E+01
 -0.6283185E+00  0.1205799E+00 -0.1570682E+01
 -0.5934120E+00  0.1223990E+00 -0.1570662E+01
 -0.5585054E+00  0.1268371E+00 -0.1570675E+01
 -0.5235988E+00  0.1283131E+00 -0.1570676E+01
 -0.4886922E+00  0.1294182E+00 -0.1570694E+01
 -0.4537856E+00  0.1324896E+00 -0.1570680E+01
 -0.4188790E+00  0.1346229E+00 -0.1570674E+01
 -0.3839725E+00  0.1366333E+00 -0.1570696E+01
 -0.3490659E+00  0.1392304E+00 -0.1570678E+01
 -0.3141593E+00  0.1422196E+00 -0.1570699E+01
 -0.2792527E+00  0.1413386E+00 -0.1570672E+01
 -0.2443461E+00  0.1461519E+00 -0.1570696E+01
 -0.2094395E+00  0.1484430E+00 -0.1570707E+01
 -0.1745329E+00  0.1421346E+00 -0.1570666E+01
 -0.1396263E+00  0.1409270E+00 -0.1570662E+01
 -0.1047198E+00  0.1463986E+00 -0.1570700E+01
 -0.6981317E-01  0.1522726E+00 -0.1570688E+01
 -0.3490658E-01  0.1487031E+00 -0.1570695E+01
  0.0000000E+00  0.1499526E+00 -0.1570686E+01
  0.3490658E-01  0.1487031E+00 -0.1570693E+01
  0.6981317E-01  0.1522726E+00 -0.1570696E+01
  0.1047198E+00  0.1463986E+00 -0.1570696E+01
  0.1396263E+00  0.1409270E+00 -0.1570660E+01
  0.1745329E+00  0.1421346E+00 -0.1570673E+01
  0.2094395E+00  0.1484430E+00 -0.1570705E+01
  0.2443461E+00  0.1461519E+00 -0.1570699E+01
  0.2792527E+00  0.1413386E+00 -0.1570674E+01
  0.3141593E+00  0.1422196E+00 -0.1570694E+01
  0.3490659E+00  0.1392304E+00 -0.1570679E+01
  0.3839725E+00  0.1366333E+00 -0.1570700E+01
  0.4188790E+00  0.1346229E+00 -0.1570669E+01
  0.4537856E+00  0.1324896E+00 -0.1570677E+01
  0.4886922E+00  0.1294182E+00 -0.1570689E+01
  0.5235988E+00  0.1283131E+00 -0.1570684E+01
  0.5585054E+00  0.1268371E+00 -0.1570675E+01
  0.5934120E+00  0.1223990E+00 -0.1570659E+01
  0.6283185E+00  0.1205799E+00 -0.1570686E+01
  0.6632251E+00  0.1161720E+00 -0.1570690E+01
  0.6981317E+00  0.1151354E+00 -0.1570681E+01
  0.7330383E+00  0.1093140E+00 -0.1570660E+01
  0.7679449E+00  0.1069529E+00 -0.1570686E+01
  0.8028514E+00  0.1032423E+00 -0.1570657E+01
  0.8377581E+00  0.9832473E-01 -0.1570671E+01
  0.8726646E+00  0.9691034E-01 -0.1570681E+01
  0.9075713E+00  0.8998631E-01 -0.1570626E+01
  0.9424778E+00  0.8686551E-01 -0.1570652E+01
  0.9773844E+00  0.8176671E-01 -0.1570690E+01
  0.1012291E+01  0.7804779E-01 -0.1570678E+01
  0.1047198E+01  0.7336630E-01 -0.1570679E+01
  0.1082104E+01  0.6736561E-01 -0.1570662E+01
  0.1117011E+01  0.6391740E-01 -0.1570634E+01
  0.1151917E+01  0.5891958E-01 -0.1570681E+01
  0.1186824E+01  0.5575661E-01 -0.1570570E+01
  0.1221731E+01  0.5037373E-01 -0.1570738E+01
  0.1256637E+01  0.4395721E-01 -0.1570664E+01
  0.1291544E+01  0.3992621E-01 -0.1570563E+01
  0.1326450E+01  0.3839550E-01 -0.1570683E+01
  0.1361357E+01  0.3234795E-01 -0.1570527E+01
  0.1396263E+01  0.2440047E-01 -0.1570343E+01
  0.1431170E+01  0.2313781E-01 -0.1570447E+01
  0.1466077E+01  0.1724607E-01 -0.1570258E+01
  0.1500983E+01  0.1195417E-01 -0.1569917E+01
  0.1535890E+01  0.4891399E-02 -0.1569051E+01
  0.1570796E+01  0.6707437E-05  0.3909484E-02
  0.1605703E+01  0.4892627E-02  0.1569549E+01
  0.1640610E+01  0.1184770E-01  0.1570390E+01
  0.1675516E+01  0.1728757E-01  0.1570216E+01
  0.1710423E+01  0.2316235E-01  0.1570774E+01
  0.1745329E+01  0.2440237E-01  0.1570660E+01
  0.1780236E+01  0.3233262E-01  0.1570548E+01
  0.1815143E+01  0.3839788E-01  0.1570694E+01
  0.1850049E+01  0.3993651E-01  0.1570668E+01
  0.1884956E+01  0.4397143E-01  0.1570695E+01
  0.1919862E+01  0.5037700E-01  0.1570834E+01
  0.1954769E+01  0.5577930E-01  0.1570729E+01
  0.1989675E+01  0.5893213E-01  0.1570788E+01
  0.2024582E+01  0.6391881E-01  0.1570798E+01
  0.2059489E+01  0.6735247E-01  0.1570789E+01
  0.2094395E+01  0.7337189E-01  0.1570766E+01
  0.2129302E+01  0.7802719E-01  0.1570731E+01
  0.2164208E+01  0.8175404E-01  0.1570772E+01
  0.2199115E+01  0.8686218E-01  0.1570819E+01
  0.2234021E+01  0.8998231E-01  0.1570826E+01
  0.2268928E+01  0.9690414E-01  0.1570801E+01
  0.2303835E+01  0.9835377E-01  0.1570818E+01
  0.2338741E+01  0.1032412E+00  0.1570806E+01
  0.2373648E+01  0.1069478E+00  0.1570809E+01
  0.2408554E+01  0.1093248E+00  0.1570798E+01
  0.2443461E+01  0.1151527E+00  0.1570817E+01
  0.2478368E+01  0.1161831E+00  0.1570786E+01
  0.2513274E+01  0.1205740E+00  0.1570819E+01
  0.2548181E+01  0.1223996E+00  0.1570810E+01
  0.2583087E+01  0.1268304E+00  0.1570816E+01
  0.2617994E+01  0.1283521E+00  0.1570812E+01
  0.2652900E+01  0.1294326E+00  0.1570812E+01
  0.2687807E+01  0.1325027E+00  0.1570793E+01
  0.2722714E+01  0.1346500E+00  0.1570840E+01
  0.2757620E+01  0.1366556E+00  0.1570819E+01
  0.2792527E+01  0.1392496E+00  0.1570803E+01
  0.2827433E+01  0.1421963E+00  0.1570820E+01
  0.2862340E+01  0.1413211E+00  0.1570844E+01
  0.2897247E+01  0.1461494E+00  0.1570815E+01
  0.2932153E+01  0.1484454E+00  0.1570811E+01
  0.2967060E+01  0.1421306E+00  0.1570798E+01
  0.3001966E+01  0.1409266E+00  0.1570812E+01
  0.3036873E+01  0.1463901E+00  0.1570814E+01
  0.3071780E+01  0.1521964E+00  0.1570830E+01
  0.3106686E+01  0.1487019E+00  0.1570817E+01
  0.3141593E+01  0.1499524E+00  0.1570804E+01
Zone t="Motion of body    1 at frequency  0.1000 rad/s",I=   181,F=POINT
 -0.3141593E+01  0.3002800E+00  0.1571056E+01
 -0.3106686E+01  0.2996482E+00  0.1571063E+01
 -0.3071780E+01  0.2960373E+00  0.1571043E+01
 -0.3036873E+01  0.3010734E+00  0.1571044E+01
 -0.3001966E+01  0.3000615E+00  0.1571042E+01
 -0.2967060E+01  0.2940754E+00  0.1571059E+01
 -0.2932153E+01  0.2952719E+00  0.1571062E+01
 -0.2897247E+01  0.2914280E+00  0.1571027E+01
 -0.2862340E+01  0.2890771E+00  0.1571056E+01
 -0.2827433E+01  0.2854500E+00  0.1571053E+01
 -0.2792527E+01  0.2831261E+00  0.1571051E+01
 -0.2757620E+01  0.2784933E+00  0.1571044E+01
 -0.2722714E+01  0.2742597E+00  0.1571045E+01
 -0.2687807E+01  0.2706832E+00  0.1571056E+01
 -0.2652900E+01  0.2649291E+00  0.1571047E+01
 -0.2617994E+01  0.2595952E+00  0.1571026E+01
 -0.2583087E+01  0.2548011E+00  0.1571043E+01
 -0.2548181E+01  0.2491072E+00  0.1571048E+01
 -0.2513274E+01  0.2430829E+00  0.1571052E+01
 -0.2478368E+01  0.2365367E+00  0.1571043E+01
 -0.2443461E+01  0.2304808E+00  0.1571044E+01
 -0.2408554E+01  0.2236790E+00  0.1571024E+01
 -0.2373648E+01  0.2159119E+00  0.1571056E+01
 -0.2338741E+01  0.2086395E+00  0.1571069E+01
 -0.2303835E+01  0.2012532E+00  0.1571031E+01
 -0.2268928E+01  0.1935082E+00  0.1571038E+01
 -0.2234021E+01  0.1849155E+00  0.1571042E+01
 -0.2199115E+01  0.1766105E+00  0.1571063E+01
 -0.2164208E+01  0.1681714E+00  0.1571035E+01
 -0.2129302E+01  0.1592796E+00  0.1571045E+01
 -0.2094395E+01  0.1497479E+00  0.1571015E+01
 -0.2059489E+01  0.1411116E+00  0.1571041E+01
 -0.2024582E+01  0.1322350E+00  0.1571037E+01
 -0.1989675E+01  0.1222185E+00  0.1571016E+01
 -0.1954769E+01  0.1122935E+00  0.1571034E+01
 -0.1919862E+01  0.1027212E+00  0.1571015E+01
 -0.1884956E+01  0.9276201E-01  0.1571002E+01
 -0.1850049E+01  0.8265442E-01  0.1571063E+01
 -0.1815143E+01  0.7198532E-01  0.1570965E+01
 -0.1780236E+01  0.6248828E-01  0.1570923E+01
 -0.1745329E+01  0.5136999E-01  0.1570946E+01
 -0.1710423E+01  0.4205452E-01  0.1570863E+01
 -0.1675516E+01  0.3095437E-01  0.1570974E+01
 -0.1640610E+01  0.2212892E-01  0.1570979E+01
 -0.1605703E+01  0.1472237E-01  0.1570517E+01
 -0.1570796E+01  0.8162111E-05  0.1354975E-03
 -0.1535890E+01  0.1477475E-01 -0.1570302E+01
 -0.1500983E+01  0.2190456E-01 -0.1570112E+01
 -0.1466077E+01  0.3096448E-01 -0.1570445E+01
 -0.1431170E+01  0.4207163E-01 -0.1570368E+01
 -0.1396263E+01  0.5131833E-01 -0.1570379E+01
 -0.1361357E+01  0.6249760E-01 -0.1570405E+01
 -0.1326450E+01  0.7198224E-01 -0.1570495E+01
 -0.1291544E+01  0.8264813E-01 -0.1570443E+01
 -0.1256637E+01  0.9277262E-01 -0.1570475E+01
 -0.1221731E+01  0.1027135E+00 -0.1570472E+01
 -0.1186824E+01  0.1122980E+00 -0.1570441E+01
 -0.1151917E+01  0.1222390E+00 -0.1570515E+01
 -0.1117011E+01  0.1322362E+00 -0.1570463E+01
 -0.1082104E+01  0.1411236E+00 -0.1570468E+01
 -0.1047198E+01  0.1497573E+00 -0.1570494E+01
 -0.1012291E+01  0.1592707E+00 -0.1570504E+01
 -0.9773844E+00  0.1681745E+00 -0.1570500E+01
 -0.9424778E+00  0.1766108E+00 -0.1570493E+01
 -0.9075713E+00  0.1849166E+00 -0.1570517E+01
 -0.8726646E+00  0.1935124E+00 -0.1570499E+01
 -0.8377581E+00  0.2012520E+00 -0.1570497E+01
 -0.8028514E+00  0.2086385E+00 -0.1570508E+01
 -0.7679449E+00  0.2159106E+00 -0.1570502E+01
 -0.7330383E+00  0.2236803E+00 -0.1570510E+01
 -0.6981317E+00  0.2304907E+00 -0.1570479E+01
 -0.6632251E+00  0.2365427E+00 -0.1570490E+01
 -0.6283185E+00  0.2430817E+00 -0.1570509E+01
 -0.5934120E+00  0.2490908E+00 -0.1570497E+01
 -0.5585054E+00  0.2548094E+00 -0.1570507E+01
 -0.5235988E+00  0.2596095E+00 -0.1570510E+01
 -0.4886922E+00  0.2649302E+00 -0.1570509E+01
 -0.4537856E+00  0.2706819E+00 -0.1570503E+01
 -0.4188790E+00  0.2742591E+00 -0.1570516E+01
 -0.3839725E+00  0.2784867E+00 -0.1570523E+01
 -0.3490659E+00  0.2831302E+00 -0.1570502E+01
 -0.3141593E+00  0.2854407E+00 -0.1570503E+01
 -0.2792527E+00  0.2890728E+00 -0.1570509E+01
 -0.2443461E+00  0.2913621E+00 -0.1570511E+01
 -0.2094395E+00  0.2952698E+00 -0.1570514E+01
 -0.1745329E+00  0.2940820E+00 -0.1570522E+01
 -0.1396263E+00  0.3000480E+00 -0.1570519E+01
 -0.1047198E+00  0.3010500E+00 -0.1570511E+01
 -0.6981317E-01  0.2959279E+00 -0.1570508E+01
 -0.3490658E-01  0.2996357E+00 -0.1570506E+01
  0.0000000E+00  0.3002795E+00 -0.1570510E+01
  0.3490658E-01  0.2996357E+00 -0.1570508E+01
  0.6981317E-01  0.2959278E+00 -0.1570509E+01
  0.1047198E+00  0.3010501E+00 -0.1570513E+01
  0.1396263E+00  0.3000480E+00 -0.1570518E+01
  0.1745329E+00  0.2940820E+00 -0.1570521E+01
  0.2094395E+00  0.2952698E+00 -0.1570516E+01
  0.2443461E+00  0.2913621E+00 -0.1570511E+01
  0.2792527E+00  0.2890728E+00 -0.1570510E+01
  0.3141593E+00  0.2854408E+00 -0.1570504E+01
  0.3490659E+00  0.2831301E+00 -0.1570503E+01
  0.3839725E+00  0.2784867E+00 -0.1570520E+01
  0.4188790E+00  0.2742592E+00 -0.1570516E+01
  0.4537856E+00  0.2706819E+00 -0.1570504E+01
  0.4886922E+00  0.2649302E+00 -0.1570506E+01
  0.5235988E+00  0.2596096E+00 -0.1570510E+01
  0.5585054E+00  0.2548094E+00 -0.1570504E+01
  0.5934120E+00  0.2490908E+00 -0.1570495E+01
  0.6283185E+00  0.2430817E+00 -0.1570508E+01
  0.6632251E+00  0.2365427E+00 -0.1570490E+01
  0.6981317E+00  0.2304907E+00 -0.1570480E+01
  0.7330383E+00  0.2236802E+00 -0.1570511E+01
  0.7679449E+00  0.2159106E+00 -0.1570499E+01
  0.8028514E+00  0.2086386E+00 -0.1570505E+01
  0.8377581E+00  0.2012520E+00 -0.1570498E+01
  0.8726646E+00  0.1935124E+00 -0.1570499E+01
  0.9075713E+00  0.1849166E+00 -0.1570513E+01
  0.9424778E+00  0.1766109E+00 -0.1570495E+01
  0.9773844E+00  0.1681745E+00 -0.1570495E+01
  0.1012291E+01  0.1592708E+00 -0.1570501E+01
  0.1047198E+01  0.1497573E+00 -0.1570493E+01
  0.1082104E+01  0.1411236E+00 -0.1570470E+01
  0.1117011E+01  0.1322362E+00 -0.1570460E+01
  0.1151917E+01  0.1222391E+00 -0.1570506E+01
  0.1186824E+01  0.1122980E+00 -0.1570441E+01
  0.1221731E+01  0.1027135E+00 -0.1570477E+01
  0.1256637E+01  0.9277263E-01 -0.1570472E+01
  0.1291544E+01  0.8264812E-01 -0.1570437E+01
  0.1326450E+01  0.7198224E-01 -0.1570502E+01
  0.1361357E+01  0.6249761E-01 -0.1570410E+01
  0.1396263E+01  0.5131832E-01 -0.1570357E+01
  0.1431170E+01  0.4207164E-01 -0.1570382E+01
  0.1466077E+01  0.3096446E-01 -0.1570478E+01
  0.1500983E+01  0.2190457E-01 -0.1570069E+01
  0.1535890E+01  0.1477476E-01 -0.1570269E+01
  0.1570796E+01  0.8635223E-05  0.1482959E-03
  0.1605703E+01  0.1472238E-01  0.1570537E+01
  0.1640610E+01  0.2212892E-01  0.1570974E+01
  0.1675516E+01  0.3095437E-01  0.1570974E+01
  0.1710423E+01  0.4205452E-01  0.1570859E+01
  0.1745329E+01  0.5136998E-01  0.1570942E+01
  0.1780236E+01  0.6248828E-01  0.1570933E+01
  0.1815143E+01  0.7198532E-01  0.1570970E+01
  0.1850049E+01  0.8265440E-01  0.1571063E+01
  0.1884956E+01  0.9276201E-01  0.1571002E+01
  0.1919862E+01  0.1027212E+00  0.1571018E+01
  0.1954769E+01  0.1122935E+00  0.1571038E+01
  0.1989675E+01  0.1222185E+00  0.1571008E+01
  0.2024582E+01  0.1322350E+00  0.1571036E+01
  0.2059489E+01  0.1411116E+00  0.1571049E+01
  0.2094395E+01  0.1497479E+00  0.1571022E+01
  0.2129302E+01  0.1592796E+00  0.1571044E+01
  0.2164208E+01  0.1681714E+00  0.1571039E+01
  0.2199115E+01  0.1766105E+00  0.1571062E+01
  0.2234021E+01  0.1849156E+00  0.1571043E+01
  0.2268928E+01  0.1935082E+00  0.1571033E+01
  0.2303835E+01  0.2012532E+00  0.1571033E+01
  0.2338741E+01  0.2086395E+00  0.1571065E+01
  0.2373648E+01  0.2159119E+00  0.1571055E+01
  0.2408554E+01  0.2236790E+00  0.1571026E+01
  0.2443461E+01  0.2304808E+00  0.1571046E+01
  0.2478368E+01  0.2365367E+00  0.1571042E+01
  0.2513274E+01  0.2430829E+00  0.1571056E+01
  0.2548181E+01  0.2491072E+00  0.1571047E+01
  0.2583087E+01  0.2548011E+00  0.1571043E+01
  0.2617994E+01  0.2595952E+00  0.1571029E+01
  0.2652900E+01  0.2649291E+00  0.1571045E+01
  0.2687807E+01  0.2706832E+00  0.1571057E+01
  0.2722714E+01  0.2742597E+00  0.1571045E+01
  0.2757620E+01  0.2784933E+00  0.1571045E+01
  0.2792527E+01  0.2831261E+00  0.1571053E+01
  0.2827433E+01  0.2854500E+00  0.1571050E+01
  0.2862340E+01  0.2890771E+00  0.1571059E+01
  0.2897247E+01  0.2914279E+00  0.1571029E+01
  0.2932153E+01  0.2952720E+00  0.1571062E+01
  0.2967060E+01  0.2940754E+00  0.1571060E+01
  0.3001966E+01  0.3000615E+00  0.1571041E+01
  0.3036873E+01  0.3010734E+00  0.1571048E+01
  0.3071780E+01  0.2960372E+00  0.1571039E+01
  0.3106686E+01  0.2996482E+00  0.1571062E+01
  0.3141593E+01  0.3002799E+00  0.1571056E+01
Zone t="Motion of body    1 at frequency  0.1500 rad/s",I=   181,F=POINT
 -0.3141593E+01  0.4555409E+00  0.1571393E+01
 -0.3106686E+01  0.4512141E+00  0.1571408E+01
 -0.3071780E+01  0.4553740E+00  0.1571416E+01
 -0.3036873E+01  0.4526223E+00  0.1571409E+01
 -0.3001966E+01  0.4509883E+00  0.1571410E+01
 -0.2967060E+01  0.4480233E+00  0.1571411E+01
 -0.2932153E+01  0.4456717E+00  0.1571405E+01
 -0.2897247E+01  0.4425036E+00  0.1571411E+01
 -0.2862340E+01  0.4378002E+00  0.1571405E+01
 -0.2827433E+01  0.4331888E+00  0.1571403E+01
 -0.2792527E+01  0.4278753E+00  0.1571412E+01
 -0.2757620E+01  0.4222925E+00  0.1571410E+01
 -0.2722714E+01  0.4162700E+00  0.1571416E+01
 -0.2687807E+01  0.4095148E+00  0.1571402E+01
 -0.2652900E+01  0.4020475E+00  0.1571403E+01
 -0.2617994E+01  0.3947203E+00  0.1571409E+01
 -0.2583087E+01  0.3862621E+00  0.1571403E+01
 -0.2548181E+01  0.3778143E+00  0.1571416E+01
 -0.2513274E+01  0.3685878E+00  0.1571400E+01
 -0.2478368E+01  0.3590853E+00  0.1571401E+01
 -0.2443461E+01  0.3492285E+00  0.1571416E+01
 -0.2408554E+01  0.3388100E+00  0.1571397E+01
 -0.2373648E+01  0.3277611E+00  0.1571403E+01
 -0.2338741E+01  0.3165536E+00  0.1571408E+01
 -0.2303835E+01  0.3050674E+00  0.1571405E+01
 -0.2268928E+01  0.2930139E+00  0.1571399E+01
 -0.2234021E+01  0.2805654E+00  0.1571422E+01
 -0.2199115E+01  0.2680009E+00  0.1571417E+01
 -0.2164208E+01  0.2549131E+00  0.1571402E+01
 -0.2129302E+01  0.2414516E+00  0.1571425E+01
 -0.2094395E+01  0.2278111E+00  0.1571388E+01
 -0.2059489E+01  0.2136474E+00  0.1571383E+01
 -0.2024582E+01  0.1997903E+00  0.1571388E+01
 -0.1989675E+01  0.1853488E+00  0.1571404E+01
 -0.1954769E+01  0.1706942E+00  0.1571404E+01
 -0.1919862E+01  0.1560351E+00  0.1571387E+01
 -0.1884956E+01  0.1408564E+00  0.1571356E+01
 -0.1850049E+01  0.1257273E+00  0.1571428E+01
 -0.1815143E+01  0.1100340E+00  0.1571395E+01
 -0.1780236E+01  0.9431323E-01  0.1571420E+01
 -0.1745329E+01  0.7903449E-01  0.1571347E+01
 -0.1710423E+01  0.6324051E-01  0.1571376E+01
 -0.1675516E+01  0.4771535E-01  0.1571354E+01
 -0.1640610E+01  0.3240996E-01  0.1571290E+01
 -0.1605703E+01  0.1606339E-01  0.1571276E+01
 -0.1570796E+01  0.1183767E-04 -0.1218654E+01
 -0.1535890E+01  0.1531615E-01 -0.1569992E+01
 -0.1500983E+01  0.3211447E-01 -0.1569963E+01
 -0.1466077E+01  0.4799802E-01 -0.1570146E+01
 -0.1431170E+01  0.6326453E-01 -0.1570122E+01
 -0.1396263E+01  0.7906508E-01 -0.1570084E+01
 -0.1361357E+01  0.9429413E-01 -0.1570113E+01
 -0.1326450E+01  0.1103528E+00 -0.1570128E+01
 -0.1291544E+01  0.1257171E+00 -0.1570132E+01
 -0.1256637E+01  0.1408416E+00 -0.1570154E+01
 -0.1221731E+01  0.1560354E+00 -0.1570169E+01
 -0.1186824E+01  0.1706964E+00 -0.1570132E+01
 -0.1151917E+01  0.1853308E+00 -0.1570159E+01
 -0.1117011E+01  0.1997947E+00 -0.1570141E+01
 -0.1082104E+01  0.2136480E+00 -0.1570165E+01
 -0.1047198E+01  0.2278142E+00 -0.1570157E+01
 -0.1012291E+01  0.2414239E+00 -0.1570163E+01
 -0.9773844E+00  0.2549103E+00 -0.1570159E+01
 -0.9424778E+00  0.2680000E+00 -0.1570160E+01
 -0.9075713E+00  0.2805683E+00 -0.1570162E+01
 -0.8726646E+00  0.2930036E+00 -0.1570180E+01
 -0.8377581E+00  0.3050677E+00 -0.1570174E+01
 -0.8028514E+00  0.3165546E+00 -0.1570174E+01
 -0.7679449E+00  0.3277614E+00 -0.1570173E+01
 -0.7330383E+00  0.3388099E+00 -0.1570174E+01
 -0.6981317E+00  0.3492469E+00 -0.1570167E+01
 -0.6632251E+00  0.3590745E+00 -0.1570171E+01
 -0.6283185E+00  0.3685898E+00 -0.1570172E+01
 -0.5934120E+00  0.3778167E+00 -0.1570159E+01
 -0.5585054E+00  0.3862579E+00 -0.1570166E+01
 -0.5235988E+00  0.3947225E+00 -0.1570160E+01
 -0.4886922E+00  0.4020449E+00 -0.1570170E+01
 -0.4537856E+00  0.4095110E+00 -0.1570163E+01
 -0.4188790E+00  0.4162655E+00 -0.1570162E+01
 -0.3839725E+00  0.4222944E+00 -0.1570180E+01
 -0.3490659E+00  0.4278819E+00 -0.1570174E+01
 -0.3141593E+00  0.4331935E+00 -0.1570168E+01
 -0.2792527E+00  0.4377983E+00 -0.1570166E+01
 -0.2443461E+00  0.4424918E+00 -0.1570176E+01
 -0.2094395E+00  0.4456792E+00 -0.1570177E+01
 -0.1745329E+00  0.4480225E+00 -0.1570174E+01
 -0.1396263E+00  0.4509794E+00 -0.1570166E+01
 -0.1047198E+00  0.4524481E+00 -0.1570174E+01
 -0.6981317E-01  0.4553472E+00 -0.1570168E+01
 -0.3490658E-01  0.4511380E+00 -0.1570175E+01
  0.0000000E+00  0.4555459E+00 -0.1570177E+01
  0.3490658E-01  0.4511380E+00 -0.1570174E+01
  0.6981317E-01  0.4553472E+00 -0.1570170E+01
  0.1047198E+00  0.4524481E+00 -0.1570172E+01
  0.1396263E+00  0.4509794E+00 -0.1570166E+01
  0.1745329E+00  0.4480224E+00 -0.1570174E+01
  0.2094395E+00  0.4456792E+00 -0.1570179E+01
  0.2443461E+00  0.4424918E+00 -0.1570177E+01
  0.2792527E+00  0.4377983E+00 -0.1570165E+01
  0.3141593E+00  0.4331935E+00 -0.1570167E+01
  0.3490659E+00  0.4278818E+00 -0.1570173E+01
  0.3839725E+00  0.4222943E+00 -0.1570178E+01
  0.4188790E+00  0.4162655E+00 -0.1570162E+01
  0.4537856E+00  0.4095110E+00 -0.1570162E+01
  0.4886922E+00  0.4020449E+00 -0.1570169E+01
  0.5235988E+00  0.3947225E+00 -0.1570161E+01
  0.5585054E+00  0.3862579E+00 -0.1570169E+01
  0.5934120E+00  0.3778167E+00 -0.1570160E+01
  0.6283185E+00  0.3685899E+00 -0.1570169E+01
  0.6632251E+00  0.3590745E+00 -0.1570171E+01
  0.6981317E+00  0.3492469E+00 -0.1570172E+01
  0.7330383E+00  0.3388100E+00 -0.1570175E+01
  0.7679449E+00  0.3277614E+00 -0.1570173E+01
  0.8028514E+00  0.3165546E+00 -0.1570177E+01
  0.8377581E+00  0.3050678E+00 -0.1570174E+01
  0.8726646E+00  0.2930036E+00 -0.1570179E+01
  0.9075713E+00  0.2805682E+00 -0.1570163E+01
  0.9424778E+00  0.2679999E+00 -0.1570162E+01
  0.9773844E+00  0.2549103E+00 -0.1570161E+01
  0.1012291E+01  0.2414239E+00 -0.1570165E+01
  0.1047198E+01  0.2278142E+00 -0.1570156E+01
  0.1082104E+01  0.2136480E+00 -0.1570165E+01
  0.1117011E+01  0.1997947E+00 -0.1570143E+01
  0.1151917E+01  0.1853308E+00 -0.1570154E+01
  0.1186824E+01  0.1706963E+00 -0.1570133E+01
  0.1221731E+01  0.1560354E+00 -0.1570169E+01
  0.1256637E+01  0.1408416E+00 -0.1570159E+01
  0.1291544E+01  0.1257171E+00 -0.1570132E+01
  0.1326450E+01  0.1103528E+00 -0.1570126E+01
  0.1361357E+01  0.9429415E-01 -0.1570114E+01
  0.1396263E+01  0.7906507E-01 -0.1570094E+01
  0.1431170E+01  0.6326456E-01 -0.1570114E+01
  0.1466077E+01  0.4799804E-01 -0.1570134E+01
  0.1500983E+01  0.3211449E-01 -0.1569950E+01
  0.1535890E+01  0.1531614E-01 -0.1569981E+01
  0.1570796E+01  0.1166074E-04 -0.1261763E+01
  0.1605703E+01  0.1606338E-01  0.1571273E+01
  0.1640610E+01  0.3240996E-01  0.1571305E+01
  0.1675516E+01  0.4771535E-01  0.1571335E+01
  0.1710423E+01  0.6324055E-01  0.1571368E+01
  0.1745329E+01  0.7903450E-01  0.1571347E+01
  0.1780236E+01  0.9431322E-01  0.1571418E+01
  0.1815143E+01  0.1100340E+00  0.1571399E+01
  0.1850049E+01  0.1257274E+00  0.1571430E+01
  0.1884956E+01  0.1408564E+00  0.1571358E+01
  0.1919862E+01  0.1560351E+00  0.1571388E+01
  0.1954769E+01  0.1706942E+00  0.1571408E+01
  0.1989675E+01  0.1853488E+00  0.1571402E+01
  0.2024582E+01  0.1997903E+00  0.1571385E+01
  0.2059489E+01  0.2136474E+00  0.1571383E+01
  0.2094395E+01  0.2278111E+00  0.1571389E+01
  0.2129302E+01  0.2414516E+00  0.1571426E+01
  0.2164208E+01  0.2549131E+00  0.1571400E+01
  0.2199115E+01  0.2680009E+00  0.1571418E+01
  0.2234021E+01  0.2805654E+00  0.1571422E+01
  0.2268928E+01  0.2930139E+00  0.1571400E+01
  0.2303835E+01  0.3050674E+00  0.1571405E+01
  0.2338741E+01  0.3165536E+00  0.1571409E+01
  0.2373648E+01  0.3277611E+00  0.1571401E+01
  0.2408554E+01  0.3388100E+00  0.1571396E+01
  0.2443461E+01  0.3492286E+00  0.1571418E+01
  0.2478368E+01  0.3590853E+00  0.1571402E+01
  0.2513274E+01  0.3685878E+00  0.1571398E+01
  0.2548181E+01  0.3778142E+00  0.1571416E+01
  0.2583087E+01  0.3862621E+00  0.1571405E+01
  0.2617994E+01  0.3947204E+00  0.1571408E+01
  0.2652900E+01  0.4020475E+00  0.1571403E+01
  0.2687807E+01  0.4095148E+00  0.1571401E+01
  0.2722714E+01  0.4162700E+00  0.1571418E+01
  0.2757620E+01  0.4222924E+00  0.1571410E+01
  0.2792527E+01  0.4278753E+00  0.1571412E+01
  0.2827433E+01  0.4331888E+00  0.1571403E+01
  0.2862340E+01  0.4378001E+00  0.1571402E+01
  0.2897247E+01  0.4425037E+00  0.1571409E+01
  0.2932153E+01  0.4456717E+00  0.1571404E+01
  0.2967060E+01  0.4480234E+00  0.1571412E+01
  0.3001966E+01  0.4509882E+00  0.1571409E+01
  0.3036873E+01  0.4526224E+00  0.1571409E+01
  0.3071780E+01  0.4553741E+00  0.1571416E+01
  0.3106686E+01  0.4512141E+00  0.1571407E+01
  0.3141593E+01  0.4555410E+00  0.1571393E+01
Zone t="Motion of body    1 at frequency  0.2000 rad/s",I=   181,F=POINT
 -0.3141593E+01  0.6168680E+00  0.1571931E+01
 -0.3106686E+01  0.6173385E+00  0.1571933E+01
 -0.3071780E+01  0.6151799E+00  0.1571926E+01
 -0.3036873E+01  0.6130964E+00  0.1571923E+01
 -0.3001966E+01  0.6112854E+00  0.1571931E+01
 -0.2967060E+01  0.6077312E+00  0.1571926E+01
 -0.2932153E+01  0.6035618E+00  0.1571930E+01
 -0.2897247E+01  0.5984157E+00  0.1571930E+01
 -0.2862340E+01  0.5928491E+00  0.1571931E+01
 -0.2827433E+01  0.5866242E+00  0.1571930E+01
 -0.2792527E+01  0.5797239E+00  0.1571927E+01
 -0.2757620E+01  0.5719076E+00  0.1571927E+01
 -0.2722714E+01  0.5636305E+00  0.1571926E+01
 -0.2687807E+01  0.5546773E+00  0.1571927E+01
 -0.2652900E+01  0.5447633E+00  0.1571919E+01
 -0.2617994E+01  0.5344147E+00  0.1571924E+01
 -0.2583087E+01  0.5234168E+00  0.1571917E+01
 -0.2548181E+01  0.5114074E+00  0.1571930E+01
 -0.2513274E+01  0.4990303E+00  0.1571925E+01
 -0.2478368E+01  0.4864305E+00  0.1571918E+01
 -0.2443461E+01  0.4725389E+00  0.1571937E+01
 -0.2408554E+01  0.4584332E+00  0.1571934E+01
 -0.2373648E+01  0.4438041E+00  0.1571937E+01
 -0.2338741E+01  0.4285955E+00  0.1571926E+01
 -0.2303835E+01  0.4127716E+00  0.1571928E+01
 -0.2268928E+01  0.3965479E+00  0.1571926E+01
 -0.2234021E+01  0.3801399E+00  0.1571927E+01
 -0.2199115E+01  0.3625592E+00  0.1571929E+01
 -0.2164208E+01  0.3449886E+00  0.1571922E+01
 -0.2129302E+01  0.3271960E+00  0.1571918E+01
 -0.2094395E+01  0.3086551E+00  0.1571936E+01
 -0.2059489E+01  0.2896505E+00  0.1571937E+01
 -0.2024582E+01  0.2706278E+00  0.1571927E+01
 -0.1989675E+01  0.2509947E+00  0.1571921E+01
 -0.1954769E+01  0.2311710E+00  0.1571931E+01
 -0.1919862E+01  0.2111842E+00  0.1571944E+01
 -0.1884956E+01  0.1906800E+00  0.1571923E+01
 -0.1850049E+01  0.1699843E+00  0.1571941E+01
 -0.1815143E+01  0.1491457E+00  0.1571971E+01
 -0.1780236E+01  0.1282512E+00  0.1571926E+01
 -0.1745329E+01  0.1075567E+00  0.1571965E+01
 -0.1710423E+01  0.8634426E-01  0.1571976E+01
 -0.1675516E+01  0.6447597E-01  0.1571933E+01
 -0.1640610E+01  0.4266984E-01  0.1572000E+01
 -0.1605703E+01  0.2392347E-01  0.1571870E+01
 -0.1570796E+01  0.6720037E-05  0.2229044E+01
 -0.1535890E+01  0.2358017E-01 -0.1569636E+01
 -0.1500983E+01  0.4268810E-01 -0.1569639E+01
 -0.1466077E+01  0.6451032E-01 -0.1569704E+01
 -0.1431170E+01  0.8634406E-01 -0.1569666E+01
 -0.1396263E+01  0.1074415E+00 -0.1569657E+01
 -0.1361357E+01  0.1282197E+00 -0.1569676E+01
 -0.1326450E+01  0.1491706E+00 -0.1569656E+01
 -0.1291544E+01  0.1699799E+00 -0.1569682E+01
 -0.1256637E+01  0.1906748E+00 -0.1569693E+01
 -0.1221731E+01  0.2111521E+00 -0.1569662E+01
 -0.1186824E+01  0.2311645E+00 -0.1569660E+01
 -0.1151917E+01  0.2509969E+00 -0.1569674E+01
 -0.1117011E+01  0.2706244E+00 -0.1569667E+01
 -0.1082104E+01  0.2896507E+00 -0.1569667E+01
 -0.1047198E+01  0.3086531E+00 -0.1569673E+01
 -0.1012291E+01  0.3271925E+00 -0.1569679E+01
 -0.9773844E+00  0.3449937E+00 -0.1569669E+01
 -0.9424778E+00  0.3625525E+00 -0.1569663E+01
 -0.9075713E+00  0.3801427E+00 -0.1569673E+01
 -0.8726646E+00  0.3965452E+00 -0.1569666E+01
 -0.8377581E+00  0.4127824E+00 -0.1569677E+01
 -0.8028514E+00  0.4286113E+00 -0.1569676E+01
 -0.7679449E+00  0.4438031E+00 -0.1569678E+01
 -0.7330383E+00  0.4584306E+00 -0.1569674E+01
 -0.6981317E+00  0.4725437E+00 -0.1569664E+01
 -0.6632251E+00  0.4864328E+00 -0.1569661E+01
 -0.6283185E+00  0.4990306E+00 -0.1569677E+01
 -0.5934120E+00  0.5114114E+00 -0.1569666E+01
 -0.5585054E+00  0.5234201E+00 -0.1569671E+01
 -0.5235988E+00  0.5342779E+00 -0.1569668E+01
 -0.4886922E+00  0.5447657E+00 -0.1569673E+01
 -0.4537856E+00  0.5546739E+00 -0.1569663E+01
 -0.4188790E+00  0.5636058E+00 -0.1569669E+01
 -0.3839725E+00  0.5719026E+00 -0.1569666E+01
 -0.3490659E+00  0.5797397E+00 -0.1569670E+01
 -0.3141593E+00  0.5867823E+00 -0.1569670E+01
 -0.2792527E+00  0.5928508E+00 -0.1569672E+01
 -0.2443461E+00  0.5984110E+00 -0.1569659E+01
 -0.2094395E+00  0.6035697E+00 -0.1569667E+01
 -0.1745329E+00  0.6077475E+00 -0.1569673E+01
 -0.1396263E+00  0.6112833E+00 -0.1569668E+01