VARIABLES="Theta (rad)" "ABS(HKochin)" "ANGLE(HKochin)"
Zone t="Motion of body    1 at frequency  0.0500 rad/s",I=   181,F=POINT
 -0.3141593E+01  0.1499678E+00  0.1570823E+01
 -0.3106686E+01  0.1487061E+00  0.1570822E+01
 -0.3071780E+01  0.1521994E+00  0.1570799E+01
 -0.3036873E+01  0.1464019E+00  0.1570816E+01
 -0.3001966E+01  0.1409306E+00  0.1570837E+01
 -0.2967060E+01  0.1421357E+00  0.1570798E+01
 -0.2932153E+01  0.1484565E+00  0.1570815E+01
 -0.2897247E+01  0.1461533E+00  0.1570804E+01
 -0.2862340E+01  0.1413451E+00  0.1570796E+01
 -0.2827433E+01  0.1421849E+00  0.1570816E+01
 -0.2792527E+01  0.1392516E+00  0.1570813E+01
 -0.2757620E+01  0.1366566E+00  0.1570830E+01
 -0.2722714E+01  0.1346416E+00  0.1570803E+01
 -0.2687807E+01  0.1325026E+00  0.1570798E+01
 -0.2652900E+01  0.1294473E+00  0.1570826E+01
 -0.2617994E+01  0.1283474E+00  0.1570812E+01
 -0.2583087E+01  0.1268373E+00  0.1570814E+01
 -0.2548181E+01  0.1223984E+00  0.1570789E+01
 -0.2513274E+01  0.1205831E+00  0.1570831E+01
 -0.2478368E+01  0.1161619E+00  0.1570822E+01
 -0.2443461E+01  0.1151480E+00  0.1570842E+01
 -0.2408554E+01  0.1093224E+00  0.1570792E+01
 -0.2373648E+01  0.1069466E+00  0.1570823E+01
 -0.2338741E+01  0.1032421E+00  0.1570769E+01
 -0.2303835E+01  0.9837224E-01  0.1570803E+01
 -0.2268928E+01  0.9691779E-01  0.1570775E+01
 -0.2234021E+01  0.8997707E-01  0.1570767E+01
 -0.2199115E+01  0.8685804E-01  0.1570832E+01
 -0.2164208E+01  0.8176155E-01  0.1570839E+01
 -0.2129302E+01  0.7802825E-01  0.1570783E+01
 -0.2094395E+01  0.7337511E-01  0.1570745E+01
 -0.2059489E+01  0.6735489E-01  0.1570761E+01
 -0.2024582E+01  0.6392301E-01  0.1570739E+01
 -0.1989675E+01  0.5893709E-01  0.1570790E+01
 -0.1954769E+01  0.5577335E-01  0.1570756E+01
 -0.1919862E+01  0.5037354E-01  0.1570754E+01
 -0.1884956E+01  0.4397398E-01  0.1570666E+01
 -0.1850049E+01  0.3993464E-01  0.1570688E+01
 -0.1815143E+01  0.3840482E-01  0.1570753E+01
 -0.1780236E+01  0.3234086E-01  0.1570586E+01
 -0.1745329E+01  0.2439236E-01  0.1570501E+01
 -0.1710423E+01  0.2315841E-01  0.1570401E+01
 -0.1675516E+01  0.1727905E-01  0.1570271E+01
 -0.1640610E+01  0.1184107E-01  0.1569942E+01
 -0.1605703E+01  0.4897824E-02  0.1569203E+01
 -0.1570796E+01  0.9156766E-05 -0.7342096E-03
 -0.1535890E+01  0.4900198E-02 -0.1569272E+01
 -0.1500983E+01  0.1195173E-01 -0.1569813E+01
 -0.1466077E+01  0.1723604E-01 -0.1570388E+01
 -0.1431170E+01  0.2313946E-01 -0.1570291E+01
 -0.1396263E+01  0.2442084E-01 -0.1570282E+01
 -0.1361357E+01  0.3234595E-01 -0.1570484E+01
 -0.1326450E+01  0.3839365E-01 -0.1570722E+01
 -0.1291544E+01  0.3992771E-01 -0.1570523E+01
 -0.1256637E+01  0.4397018E-01 -0.1570651E+01
 -0.1221731E+01  0.5037122E-01 -0.1570693E+01
 -0.1186824E+01  0.5574052E-01 -0.1570555E+01
 -0.1151917E+01  0.5891950E-01 -0.1570566E+01
 -0.1117011E+01  0.6392961E-01 -0.1570670E+01
 -0.1082104E+01  0.6737689E-01 -0.1570601E+01
 -0.1047198E+01  0.7338035E-01 -0.1570698E+01
 -0.1012291E+01  0.7805462E-01 -0.1570644E+01
 -0.9773844E+00  0.8177316E-01 -0.1570704E+01
 -0.9424778E+00  0.8687930E-01 -0.1570649E+01
 -0.9075713E+00  0.8999048E-01 -0.1570613E+01
 -0.8726646E+00  0.9691583E-01 -0.1570640E+01
 -0.8377581E+00  0.9833205E-01 -0.1570634E+01
 -0.8028514E+00  0.1032537E+00 -0.1570662E+01
 -0.7679449E+00  0.1069454E+00 -0.1570692E+01
 -0.7330383E+00  0.1093117E+00 -0.1570695E+01
 -0.6981317E+00  0.1151420E+00 -0.1570665E+01
 -0.6632251E+00  0.1161686E+00 -0.1570681E+01
 -0.6283185E+00  0.1205768E+00 -0.1570677E+01
 -0.5934120E+00  0.1223966E+00 -0.1570692E+01
 -0.5585054E+00  0.1268414E+00 -0.1570688E+01
 -0.5235988E+00  0.1283219E+00 -0.1570691E+01
 -0.4886922E+00  0.1294173E+00 -0.1570694E+01
 -0.4537856E+00  0.1325068E+00 -0.1570670E+01
 -0.4188790E+00  0.1346309E+00 -0.1570694E+01
 -0.3839725E+00  0.1366388E+00 -0.1570663E+01
 -0.3490659E+00  0.1392299E+00 -0.1570651E+01
 -0.3141593E+00  0.1422199E+00 -0.1570680E+01
 -0.2792527E+00  0.1413565E+00 -0.1570672E+01
 -0.2443461E+00  0.1461389E+00 -0.1570675E+01
 -0.2094395E+00  0.1484636E+00 -0.1570654E+01
 -0.1745329E+00  0.1421371E+00 -0.1570683E+01
 -0.1396263E+00  0.1409036E+00 -0.1570684E+01
 -0.1047198E+00  0.1464139E+00 -0.1570660E+01
 -0.6981317E-01  0.1522639E+00 -0.1570691E+01
 -0.3490658E-01  0.1487035E+00 -0.1570681E+01
  0.0000000E+00  0.1499577E+00 -0.1570707E+01
  0.3490658E-01  0.1487035E+00 -0.1570678E+01
  0.6981317E-01  0.1522638E+00 -0.1570695E+01
  0.1047198E+00  0.1464139E+00 -0.1570660E+01
  0.1396263E+00  0.1409036E+00 -0.1570692E+01
  0.1745329E+00  0.1421371E+00 -0.1570689E+01
  0.2094395E+00  0.1484636E+00 -0.1570665E+01
  0.2443461E+00  0.1461388E+00 -0.1570675E+01
  0.2792527E+00  0.1413565E+00 -0.1570672E+01
  0.3141593E+00  0.1422199E+00 -0.1570680E+01
  0.3490659E+00  0.1392299E+00 -0.1570645E+01
  0.3839725E+00  0.1366388E+00 -0.1570661E+01
  0.4188790E+00  0.1346309E+00 -0.1570699E+01
  0.4537856E+00  0.1325068E+00 -0.1570670E+01
  0.4886922E+00  0.1294173E+00 -0.1570691E+01
  0.5235988E+00  0.1283219E+00 -0.1570691E+01
  0.5585054E+00  0.1268414E+00 -0.1570689E+01
  0.5934120E+00  0.1223966E+00 -0.1570693E+01
  0.6283185E+00  0.1205768E+00 -0.1570668E+01
  0.6632251E+00  0.1161686E+00 -0.1570681E+01
  0.6981317E+00  0.1151421E+00 -0.1570666E+01
  0.7330383E+00  0.1093117E+00 -0.1570694E+01
  0.7679449E+00  0.1069454E+00 -0.1570696E+01
  0.8028514E+00  0.1032537E+00 -0.1570664E+01
  0.8377581E+00  0.9833205E-01 -0.1570634E+01
  0.8726646E+00  0.9691582E-01 -0.1570650E+01
  0.9075713E+00  0.8999048E-01 -0.1570622E+01
  0.9424778E+00  0.8687929E-01 -0.1570650E+01
  0.9773844E+00  0.8177318E-01 -0.1570701E+01
  0.1012291E+01  0.7805462E-01 -0.1570635E+01
  0.1047198E+01  0.7338034E-01 -0.1570699E+01
  0.1082104E+01  0.6737688E-01 -0.1570616E+01
  0.1117011E+01  0.6392961E-01 -0.1570684E+01
  0.1151917E+01  0.5891949E-01 -0.1570566E+01
  0.1186824E+01  0.5574052E-01 -0.1570561E+01
  0.1221731E+01  0.5037123E-01 -0.1570703E+01
  0.1256637E+01  0.4397018E-01 -0.1570651E+01
  0.1291544E+01  0.3992771E-01 -0.1570534E+01
  0.1326450E+01  0.3839365E-01 -0.1570717E+01
  0.1361357E+01  0.3234595E-01 -0.1570465E+01
  0.1396263E+01  0.2442085E-01 -0.1570256E+01
  0.1431170E+01  0.2313947E-01 -0.1570261E+01
  0.1466077E+01  0.1723605E-01 -0.1570411E+01
  0.1500983E+01  0.1195173E-01 -0.1569801E+01
  0.1535890E+01  0.4900197E-02 -0.1569333E+01
  0.1570796E+01  0.9074810E-05 -0.7664972E-03
  0.1605703E+01  0.4897827E-02  0.1569314E+01
  0.1640610E+01  0.1184107E-01  0.1569979E+01
  0.1675516E+01  0.1727905E-01  0.1570292E+01
  0.1710423E+01  0.2315841E-01  0.1570399E+01
  0.1745329E+01  0.2439236E-01  0.1570504E+01
  0.1780236E+01  0.3234086E-01  0.1570591E+01
  0.1815143E+01  0.3840482E-01  0.1570742E+01
  0.1850049E+01  0.3993464E-01  0.1570689E+01
  0.1884956E+01  0.4397398E-01  0.1570667E+01
  0.1919862E+01  0.5037353E-01  0.1570745E+01
  0.1954769E+01  0.5577334E-01  0.1570755E+01
  0.1989675E+01  0.5893709E-01  0.1570808E+01
  0.2024582E+01  0.6392301E-01  0.1570740E+01
  0.2059489E+01  0.6735490E-01  0.1570772E+01
  0.2094395E+01  0.7337511E-01  0.1570739E+01
  0.2129302E+01  0.7802825E-01  0.1570780E+01
  0.2164208E+01  0.8176154E-01  0.1570840E+01
  0.2199115E+01  0.8685804E-01  0.1570833E+01
  0.2234021E+01  0.8997708E-01  0.1570762E+01
  0.2268928E+01  0.9691779E-01  0.1570775E+01
  0.2303835E+01  0.9837222E-01  0.1570808E+01
  0.2338741E+01  0.1032421E+00  0.1570776E+01
  0.2373648E+01  0.1069466E+00  0.1570827E+01
  0.2408554E+01  0.1093224E+00  0.1570796E+01
  0.2443461E+01  0.1151480E+00  0.1570836E+01
  0.2478368E+01  0.1161619E+00  0.1570816E+01
  0.2513274E+01  0.1205831E+00  0.1570826E+01
  0.2548181E+01  0.1223983E+00  0.1570785E+01
  0.2583087E+01  0.1268373E+00  0.1570811E+01
  0.2617994E+01  0.1283474E+00  0.1570820E+01
  0.2652900E+01  0.1294472E+00  0.1570830E+01
  0.2687807E+01  0.1325027E+00  0.1570802E+01
  0.2722714E+01  0.1346416E+00  0.1570806E+01
  0.2757620E+01  0.1366566E+00  0.1570833E+01
  0.2792527E+01  0.1392516E+00  0.1570816E+01
  0.2827433E+01  0.1421849E+00  0.1570813E+01
  0.2862340E+01  0.1413451E+00  0.1570797E+01
  0.2897247E+01  0.1461533E+00  0.1570801E+01
  0.2932153E+01  0.1484565E+00  0.1570815E+01
  0.2967060E+01  0.1421357E+00  0.1570797E+01
  0.3001966E+01  0.1409306E+00  0.1570836E+01
  0.3036873E+01  0.1464019E+00  0.1570816E+01
  0.3071780E+01  0.1521994E+00  0.1570800E+01
  0.3106686E+01  0.1487061E+00  0.1570819E+01
  0.3141593E+01  0.1499677E+00  0.1570823E+01
Zone t="Motion of body    1 at frequency  0.1000 rad/s",I=   181,F=POINT
 -0.3141593E+01  0.3002780E+00  0.1571056E+01
 -0.3106686E+01  0.2996367E+00  0.1571041E+01
 -0.3071780E+01  0.2960308E+00  0.1571040E+01
 -0.3036873E+01  0.3010657E+00  0.1571030E+01
 -0.3001966E+01  0.3000570E+00  0.1571047E+01
 -0.2967060E+01  0.2940785E+00  0.1571040E+01
 -0.2932153E+01  0.2952691E+00  0.1571048E+01
 -0.2897247E+01  0.2914223E+00  0.1571037E+01
 -0.2862340E+01  0.2890652E+00  0.1571046E+01
 -0.2827433E+01  0.2854483E+00  0.1571034E+01
 -0.2792527E+01  0.2831236E+00  0.1571038E+01
 -0.2757620E+01  0.2784873E+00  0.1571038E+01
 -0.2722714E+01  0.2742685E+00  0.1571045E+01
 -0.2687807E+01  0.2706738E+00  0.1571046E+01
 -0.2652900E+01  0.2649186E+00  0.1571043E+01
 -0.2617994E+01  0.2595952E+00  0.1571034E+01
 -0.2583087E+01  0.2547967E+00  0.1571040E+01
 -0.2548181E+01  0.2490934E+00  0.1571027E+01
 -0.2513274E+01  0.2430867E+00  0.1571054E+01
 -0.2478368E+01  0.2365305E+00  0.1571034E+01
 -0.2443461E+01  0.2304773E+00  0.1571024E+01
 -0.2408554E+01  0.2236783E+00  0.1571032E+01
 -0.2373648E+01  0.2159144E+00  0.1571031E+01
 -0.2338741E+01  0.2086335E+00  0.1571036E+01
 -0.2303835E+01  0.2012459E+00  0.1571027E+01
 -0.2268928E+01  0.1935080E+00  0.1571028E+01
 -0.2234021E+01  0.1849100E+00  0.1571019E+01
 -0.2199115E+01  0.1766123E+00  0.1571055E+01
 -0.2164208E+01  0.1681705E+00  0.1571064E+01
 -0.2129302E+01  0.1592847E+00  0.1571003E+01
 -0.2094395E+01  0.1497495E+00  0.1571025E+01
 -0.2059489E+01  0.1411060E+00  0.1571006E+01
 -0.2024582E+01  0.1322330E+00  0.1571021E+01
 -0.1989675E+01  0.1222260E+00  0.1570978E+01
 -0.1954769E+01  0.1122879E+00  0.1571003E+01
 -0.1919862E+01  0.1027161E+00  0.1570992E+01
 -0.1884956E+01  0.9275994E-01  0.1570970E+01
 -0.1850049E+01  0.8264846E-01  0.1571006E+01
 -0.1815143E+01  0.7198148E-01  0.1570951E+01
 -0.1780236E+01  0.6248848E-01  0.1570953E+01
 -0.1745329E+01  0.5137151E-01  0.1570857E+01
 -0.1710423E+01  0.4205858E-01  0.1570751E+01
 -0.1675516E+01  0.3095412E-01  0.1570778E+01
 -0.1640610E+01  0.2213544E-01  0.1570857E+01
 -0.1605703E+01  0.1473190E-01  0.1570549E+01
 -0.1570796E+01  0.7288537E-05  0.1309736E-02
 -0.1535890E+01  0.1477120E-01 -0.1570256E+01
 -0.1500983E+01  0.2191271E-01 -0.1570109E+01
 -0.1466077E+01  0.3095972E-01 -0.1570401E+01
 -0.1431170E+01  0.4207152E-01 -0.1570389E+01
 -0.1396263E+01  0.5131909E-01 -0.1570330E+01
 -0.1361357E+01  0.6249186E-01 -0.1570400E+01
 -0.1326450E+01  0.7197717E-01 -0.1570441E+01
 -0.1291544E+01  0.8264331E-01 -0.1570377E+01
 -0.1256637E+01  0.9277302E-01 -0.1570405E+01
 -0.1221731E+01  0.1027090E+00 -0.1570468E+01
 -0.1186824E+01  0.1122950E+00 -0.1570436E+01
 -0.1151917E+01  0.1222403E+00 -0.1570448E+01
 -0.1117011E+01  0.1322298E+00 -0.1570462E+01
 -0.1082104E+01  0.1411171E+00 -0.1570494E+01
 -0.1047198E+01  0.1497499E+00 -0.1570498E+01
 -0.1012291E+01  0.1592691E+00 -0.1570495E+01
 -0.9773844E+00  0.1681667E+00 -0.1570500E+01
 -0.9424778E+00  0.1766130E+00 -0.1570474E+01
 -0.9075713E+00  0.1849132E+00 -0.1570482E+01
 -0.8726646E+00  0.1935095E+00 -0.1570484E+01
 -0.8377581E+00  0.2012496E+00 -0.1570483E+01
 -0.8028514E+00  0.2086280E+00 -0.1570449E+01
 -0.7679449E+00  0.2159092E+00 -0.1570488E+01
 -0.7330383E+00  0.2236775E+00 -0.1570511E+01
 -0.6981317E+00  0.2304907E+00 -0.1570486E+01
 -0.6632251E+00  0.2365391E+00 -0.1570507E+01
 -0.6283185E+00  0.2430755E+00 -0.1570486E+01
 -0.5934120E+00  0.2490783E+00 -0.1570490E+01
 -0.5585054E+00  0.2548040E+00 -0.1570484E+01
 -0.5235988E+00  0.2596191E+00 -0.1570481E+01
 -0.4886922E+00  0.2649380E+00 -0.1570498E+01
 -0.4537856E+00  0.2706747E+00 -0.1570482E+01
 -0.4188790E+00  0.2742599E+00 -0.1570504E+01
 -0.3839725E+00  0.2784830E+00 -0.1570495E+01
 -0.3490659E+00  0.2831293E+00 -0.1570490E+01
 -0.3141593E+00  0.2854378E+00 -0.1570490E+01
 -0.2792527E+00  0.2890630E+00 -0.1570497E+01
 -0.2443461E+00  0.2913657E+00 -0.1570501E+01
 -0.2094395E+00  0.2952722E+00 -0.1570497E+01
 -0.1745329E+00  0.2940764E+00 -0.1570501E+01
 -0.1396263E+00  0.3000439E+00 -0.1570507E+01
 -0.1047198E+00  0.3010503E+00 -0.1570514E+01
 -0.6981317E-01  0.2959231E+00 -0.1570495E+01
 -0.3490658E-01  0.2996210E+00 -0.1570502E+01
  0.0000000E+00  0.3002826E+00 -0.1570521E+01
  0.3490658E-01  0.2996210E+00 -0.1570503E+01
  0.6981317E-01  0.2959230E+00 -0.1570495E+01
  0.1047198E+00  0.3010503E+00 -0.1570515E+01
  0.1396263E+00  0.3000439E+00 -0.1570508E+01
  0.1745329E+00  0.2940764E+00 -0.1570503E+01
  0.2094395E+00  0.2952722E+00 -0.1570499E+01
  0.2443461E+00  0.2913657E+00 -0.1570506E+01
  0.2792527E+00  0.2890630E+00 -0.1570495E+01
  0.3141593E+00  0.2854378E+00 -0.1570490E+01
  0.3490659E+00  0.2831292E+00 -0.1570487E+01
  0.3839725E+00  0.2784830E+00 -0.1570497E+01
  0.4188790E+00  0.2742599E+00 -0.1570505E+01
  0.4537856E+00  0.2706747E+00 -0.1570485E+01
  0.4886922E+00  0.2649380E+00 -0.1570500E+01
  0.5235988E+00  0.2596191E+00 -0.1570482E+01
  0.5585054E+00  0.2548040E+00 -0.1570485E+01
  0.5934120E+00  0.2490783E+00 -0.1570493E+01
  0.6283185E+00  0.2430755E+00 -0.1570488E+01
  0.6632251E+00  0.2365391E+00 -0.1570510E+01
  0.6981317E+00  0.2304907E+00 -0.1570486E+01
  0.7330383E+00  0.2236775E+00 -0.1570509E+01
  0.7679449E+00  0.2159092E+00 -0.1570489E+01
  0.8028514E+00  0.2086280E+00 -0.1570446E+01
  0.8377581E+00  0.2012496E+00 -0.1570484E+01
  0.8726646E+00  0.1935095E+00 -0.1570485E+01
  0.9075713E+00  0.1849132E+00 -0.1570483E+01
  0.9424778E+00  0.1766130E+00 -0.1570474E+01
  0.9773844E+00  0.1681667E+00 -0.1570505E+01
  0.1012291E+01  0.1592691E+00 -0.1570499E+01
  0.1047198E+01  0.1497499E+00 -0.1570497E+01
  0.1082104E+01  0.1411171E+00 -0.1570496E+01
  0.1117011E+01  0.1322298E+00 -0.1570460E+01
  0.1151917E+01  0.1222403E+00 -0.1570453E+01
  0.1186824E+01  0.1122950E+00 -0.1570435E+01
  0.1221731E+01  0.1027090E+00 -0.1570462E+01
  0.1256637E+01  0.9277304E-01 -0.1570421E+01
  0.1291544E+01  0.8264331E-01 -0.1570377E+01
  0.1326450E+01  0.7197718E-01 -0.1570440E+01
  0.1361357E+01  0.6249187E-01 -0.1570395E+01
  0.1396263E+01  0.5131909E-01 -0.1570344E+01
  0.1431170E+01  0.4207152E-01 -0.1570403E+01
  0.1466077E+01  0.3095973E-01 -0.1570421E+01
  0.1500983E+01  0.2191272E-01 -0.1570129E+01
  0.1535890E+01  0.1477120E-01 -0.1570276E+01
  0.1570796E+01  0.7180503E-05  0.1264591E-02
  0.1605703E+01  0.1473190E-01  0.1570560E+01
  0.1640610E+01  0.2213544E-01  0.1570886E+01
  0.1675516E+01  0.3095412E-01  0.1570748E+01
  0.1710423E+01  0.4205856E-01  0.1570749E+01
  0.1745329E+01  0.5137151E-01  0.1570865E+01
  0.1780236E+01  0.6248849E-01  0.1570942E+01
  0.1815143E+01  0.7198149E-01  0.1570953E+01
  0.1850049E+01  0.8264846E-01  0.1571004E+01
  0.1884956E+01  0.9275993E-01  0.1570977E+01
  0.1919862E+01  0.1027161E+00  0.1570989E+01
  0.1954769E+01  0.1122879E+00  0.1570994E+01
  0.1989675E+01  0.1222261E+00  0.1570971E+01
  0.2024582E+01  0.1322330E+00  0.1571016E+01
  0.2059489E+01  0.1411060E+00  0.1571005E+01
  0.2094395E+01  0.1497495E+00  0.1571020E+01
  0.2129302E+01  0.1592847E+00  0.1571007E+01
  0.2164208E+01  0.1681705E+00  0.1571064E+01
  0.2199115E+01  0.1766123E+00  0.1571061E+01
  0.2234021E+01  0.1849100E+00  0.1571015E+01
  0.2268928E+01  0.1935080E+00  0.1571028E+01
  0.2303835E+01  0.2012459E+00  0.1571025E+01
  0.2338741E+01  0.2086335E+00  0.1571038E+01
  0.2373648E+01  0.2159144E+00  0.1571035E+01
  0.2408554E+01  0.2236784E+00  0.1571032E+01
  0.2443461E+01  0.2304773E+00  0.1571021E+01
  0.2478368E+01  0.2365305E+00  0.1571035E+01
  0.2513274E+01  0.2430867E+00  0.1571048E+01
  0.2548181E+01  0.2490934E+00  0.1571027E+01
  0.2583087E+01  0.2547967E+00  0.1571038E+01
  0.2617994E+01  0.2595952E+00  0.1571034E+01
  0.2652900E+01  0.2649187E+00  0.1571043E+01
  0.2687807E+01  0.2706738E+00  0.1571049E+01
  0.2722714E+01  0.2742685E+00  0.1571045E+01
  0.2757620E+01  0.2784873E+00  0.1571039E+01
  0.2792527E+01  0.2831236E+00  0.1571033E+01
  0.2827433E+01  0.2854483E+00  0.1571036E+01
  0.2862340E+01  0.2890651E+00  0.1571049E+01
  0.2897247E+01  0.2914223E+00  0.1571037E+01
  0.2932153E+01  0.2952691E+00  0.1571047E+01
  0.2967060E+01  0.2940784E+00  0.1571041E+01
  0.3001966E+01  0.3000571E+00  0.1571043E+01
  0.3036873E+01  0.3010658E+00  0.1571030E+01
  0.3071780E+01  0.2960308E+00  0.1571042E+01
  0.3106686E+01  0.2996367E+00  0.1571041E+01
  0.3141593E+01  0.3002780E+00  0.1571056E+01
Zone t="Motion of body    1 at frequency  0.1500 rad/s",I=   181,F=POINT
 -0.3141593E+01  0.4556715E+00  0.1571416E+01
 -0.3106686E+01  0.4540719E+00  0.1571401E+01
 -0.3071780E+01  0.4551670E+00  0.1571400E+01
 -0.3036873E+01  0.4534921E+00  0.1571399E+01
 -0.3001966E+01  0.4517064E+00  0.1571396E+01
 -0.2967060E+01  0.4485719E+00  0.1571402E+01
 -0.2932153E+01  0.4453248E+00  0.1571398E+01
 -0.2897247E+01  0.4423611E+00  0.1571410E+01
 -0.2862340E+01  0.4386448E+00  0.1571395E+01
 -0.2827433E+01  0.4337754E+00  0.1571402E+01
 -0.2792527E+01  0.4284118E+00  0.1571405E+01
 -0.2757620E+01  0.4221637E+00  0.1571406E+01
 -0.2722714E+01  0.4156834E+00  0.1571398E+01
 -0.2687807E+01  0.4095205E+00  0.1571387E+01
 -0.2652900E+01  0.4022436E+00  0.1571392E+01
 -0.2617994E+01  0.3944993E+00  0.1571408E+01
 -0.2583087E+01  0.3864404E+00  0.1571402E+01
 -0.2548181E+01  0.3778159E+00  0.1571393E+01
 -0.2513274E+01  0.3688752E+00  0.1571390E+01
 -0.2478368E+01  0.3591374E+00  0.1571386E+01
 -0.2443461E+01  0.3493039E+00  0.1571393E+01
 -0.2408554E+01  0.3385516E+00  0.1571393E+01
 -0.2373648E+01  0.3277581E+00  0.1571395E+01
 -0.2338741E+01  0.3164695E+00  0.1571388E+01
 -0.2303835E+01  0.3049496E+00  0.1571379E+01
 -0.2268928E+01  0.2931994E+00  0.1571406E+01
 -0.2234021E+01  0.2806282E+00  0.1571373E+01
 -0.2199115E+01  0.2680426E+00  0.1571385E+01
 -0.2164208E+01  0.2549630E+00  0.1571382E+01
 -0.2129302E+01  0.2414334E+00  0.1571387E+01
 -0.2094395E+01  0.2278286E+00  0.1571375E+01
 -0.2059489E+01  0.2139555E+00  0.1571396E+01
 -0.2024582E+01  0.1997704E+00  0.1571385E+01
 -0.1989675E+01  0.1849350E+00  0.1571369E+01
 -0.1954769E+01  0.1705579E+00  0.1571381E+01
 -0.1919862E+01  0.1560641E+00  0.1571368E+01
 -0.1884956E+01  0.1408659E+00  0.1571384E+01
 -0.1850049E+01  0.1258616E+00  0.1571336E+01
 -0.1815143E+01  0.1104586E+00  0.1571364E+01
 -0.1780236E+01  0.9480659E-01  0.1571346E+01
 -0.1745329E+01  0.7905927E-01  0.1571317E+01
 -0.1710423E+01  0.6364617E-01  0.1571308E+01
 -0.1675516E+01  0.4724595E-01  0.1571254E+01
 -0.1640610E+01  0.3246073E-01  0.1571236E+01
 -0.1605703E+01  0.1532740E-01  0.1570948E+01
 -0.1570796E+01  0.5338585E-05  0.3856327E-01
 -0.1535890E+01  0.1547543E-01 -0.1569641E+01
 -0.1500983E+01  0.3216482E-01 -0.1569826E+01
 -0.1466077E+01  0.4724323E-01 -0.1570042E+01
 -0.1431170E+01  0.6365266E-01 -0.1570050E+01
 -0.1396263E+01  0.7911116E-01 -0.1570095E+01
 -0.1361357E+01  0.9479613E-01 -0.1570093E+01
 -0.1326450E+01  0.1103911E+00 -0.1570132E+01
 -0.1291544E+01  0.1258447E+00 -0.1570172E+01
 -0.1256637E+01  0.1408448E+00 -0.1570109E+01
 -0.1221731E+01  0.1560540E+00 -0.1570103E+01
 -0.1186824E+01  0.1705642E+00 -0.1570123E+01
 -0.1151917E+01  0.1849349E+00 -0.1570132E+01
 -0.1117011E+01  0.1997754E+00 -0.1570127E+01
 -0.1082104E+01  0.2139634E+00 -0.1570132E+01
 -0.1047198E+01  0.2278305E+00 -0.1570148E+01
 -0.1012291E+01  0.2414394E+00 -0.1570152E+01
 -0.9773844E+00  0.2549621E+00 -0.1570166E+01
 -0.9424778E+00  0.2680494E+00 -0.1570128E+01
 -0.9075713E+00  0.2806271E+00 -0.1570152E+01
 -0.8726646E+00  0.2931983E+00 -0.1570148E+01
 -0.8377581E+00  0.3049487E+00 -0.1570146E+01
 -0.8028514E+00  0.3164620E+00 -0.1570160E+01
 -0.7679449E+00  0.3277625E+00 -0.1570160E+01
 -0.7330383E+00  0.3385507E+00 -0.1570161E+01
 -0.6981317E+00  0.3493024E+00 -0.1570159E+01
 -0.6632251E+00  0.3591400E+00 -0.1570157E+01
 -0.6283185E+00  0.3688723E+00 -0.1570159E+01
 -0.5934120E+00  0.3777970E+00 -0.1570158E+01
 -0.5585054E+00  0.3864574E+00 -0.1570154E+01
 -0.5235988E+00  0.3945001E+00 -0.1570157E+01
 -0.4886922E+00  0.4022365E+00 -0.1570156E+01
 -0.4537856E+00  0.4095159E+00 -0.1570167E+01
 -0.4188790E+00  0.4156950E+00 -0.1570155E+01
 -0.3839725E+00  0.4221662E+00 -0.1570161E+01
 -0.3490659E+00  0.4283725E+00 -0.1570157E+01
 -0.3141593E+00  0.4337595E+00 -0.1570150E+01
 -0.2792527E+00  0.4386422E+00 -0.1570169E+01
 -0.2443461E+00  0.4423696E+00 -0.1570159E+01
 -0.2094395E+00  0.4453227E+00 -0.1570168E+01
 -0.1745329E+00  0.4485448E+00 -0.1570174E+01
 -0.1396263E+00  0.4517252E+00 -0.1570161E+01
 -0.1047198E+00  0.4533139E+00 -0.1570170E+01
 -0.6981317E-01  0.4551863E+00 -0.1570165E+01
 -0.3490658E-01  0.4539892E+00 -0.1570163E+01
  0.0000000E+00  0.4556710E+00 -0.1570177E+01
  0.3490658E-01  0.4539892E+00 -0.1570161E+01
  0.6981317E-01  0.4551864E+00 -0.1570163E+01
  0.1047198E+00  0.4533139E+00 -0.1570168E+01
  0.1396263E+00  0.4517252E+00 -0.1570163E+01
  0.1745329E+00  0.4485448E+00 -0.1570173E+01
  0.2094395E+00  0.4453227E+00 -0.1570169E+01
  0.2443461E+00  0.4423695E+00 -0.1570162E+01
  0.2792527E+00  0.4386422E+00 -0.1570169E+01
  0.3141593E+00  0.4337595E+00 -0.1570148E+01
  0.3490659E+00  0.4283725E+00 -0.1570158E+01
  0.3839725E+00  0.4221662E+00 -0.1570162E+01
  0.4188790E+00  0.4156949E+00 -0.1570153E+01
  0.4537856E+00  0.4095160E+00 -0.1570166E+01
  0.4886922E+00  0.4022364E+00 -0.1570159E+01
  0.5235988E+00  0.3945001E+00 -0.1570157E+01
  0.5585054E+00  0.3864573E+00 -0.1570153E+01
  0.5934120E+00  0.3777971E+00 -0.1570157E+01
  0.6283185E+00  0.3688723E+00 -0.1570158E+01
  0.6632251E+00  0.3591401E+00 -0.1570156E+01
  0.6981317E+00  0.3493024E+00 -0.1570159E+01
  0.7330383E+00  0.3385507E+00 -0.1570160E+01
  0.7679449E+00  0.3277625E+00 -0.1570161E+01
  0.8028514E+00  0.3164620E+00 -0.1570159E+01
  0.8377581E+00  0.3049487E+00 -0.1570145E+01
  0.8726646E+00  0.2931982E+00 -0.1570155E+01
  0.9075713E+00  0.2806271E+00 -0.1570150E+01
  0.9424778E+00  0.2680494E+00 -0.1570131E+01
  0.9773844E+00  0.2549621E+00 -0.1570162E+01
  0.1012291E+01  0.2414394E+00 -0.1570152E+01
  0.1047198E+01  0.2278305E+00 -0.1570151E+01
  0.1082104E+01  0.2139634E+00 -0.1570133E+01
  0.1117011E+01  0.1997755E+00 -0.1570126E+01
  0.1151917E+01  0.1849349E+00 -0.1570130E+01
  0.1186824E+01  0.1705642E+00 -0.1570130E+01
  0.1221731E+01  0.1560540E+00 -0.1570103E+01
  0.1256637E+01  0.1408448E+00 -0.1570107E+01
  0.1291544E+01  0.1258447E+00 -0.1570168E+01
  0.1326450E+01  0.1103911E+00 -0.1570130E+01
  0.1361357E+01  0.9479613E-01 -0.1570086E+01
  0.1396263E+01  0.7911117E-01 -0.1570105E+01
  0.1431170E+01  0.6365264E-01 -0.1570062E+01
  0.1466077E+01  0.4724322E-01 -0.1570027E+01
  0.1500983E+01  0.3216483E-01 -0.1569817E+01
  0.1535890E+01  0.1547543E-01 -0.1569731E+01
  0.1570796E+01  0.6861389E-05  0.3020537E-01
  0.1605703E+01  0.1532740E-01  0.1570913E+01
  0.1640610E+01  0.3246073E-01  0.1571235E+01
  0.1675516E+01  0.4724593E-01  0.1571238E+01
  0.1710423E+01  0.6364617E-01  0.1571325E+01
  0.1745329E+01  0.7905930E-01  0.1571330E+01
  0.1780236E+01  0.9480660E-01  0.1571354E+01
  0.1815143E+01  0.1104586E+00  0.1571361E+01
  0.1850049E+01  0.1258616E+00  0.1571331E+01
  0.1884956E+01  0.1408659E+00  0.1571388E+01
  0.1919862E+01  0.1560641E+00  0.1571369E+01
  0.1954769E+01  0.1705579E+00  0.1571381E+01
  0.1989675E+01  0.1849350E+00  0.1571370E+01
  0.2024582E+01  0.1997705E+00  0.1571384E+01
  0.2059489E+01  0.2139554E+00  0.1571394E+01
  0.2094395E+01  0.2278286E+00  0.1571380E+01
  0.2129302E+01  0.2414334E+00  0.1571385E+01
  0.2164208E+01  0.2549631E+00  0.1571382E+01
  0.2199115E+01  0.2680426E+00  0.1571387E+01
  0.2234021E+01  0.2806282E+00  0.1571373E+01
  0.2268928E+01  0.2931994E+00  0.1571407E+01
  0.2303835E+01  0.3049496E+00  0.1571381E+01
  0.2338741E+01  0.3164695E+00  0.1571386E+01
  0.2373648E+01  0.3277581E+00  0.1571396E+01
  0.2408554E+01  0.3385516E+00  0.1571394E+01
  0.2443461E+01  0.3493040E+00  0.1571395E+01
  0.2478368E+01  0.3591374E+00  0.1571389E+01
  0.2513274E+01  0.3688751E+00  0.1571391E+01
  0.2548181E+01  0.3778159E+00  0.1571393E+01
  0.2583087E+01  0.3864404E+00  0.1571400E+01
  0.2617994E+01  0.3944994E+00  0.1571406E+01
  0.2652900E+01  0.4022436E+00  0.1571392E+01
  0.2687807E+01  0.4095205E+00  0.1571385E+01
  0.2722714E+01  0.4156834E+00  0.1571400E+01
  0.2757620E+01  0.4221637E+00  0.1571404E+01
  0.2792527E+01  0.4284118E+00  0.1571405E+01
  0.2827433E+01  0.4337754E+00  0.1571401E+01
  0.2862340E+01  0.4386448E+00  0.1571396E+01
  0.2897247E+01  0.4423610E+00  0.1571410E+01
  0.2932153E+01  0.4453248E+00  0.1571398E+01
  0.2967060E+01  0.4485721E+00  0.1571403E+01
  0.3001966E+01  0.4517064E+00  0.1571397E+01
  0.3036873E+01  0.4534921E+00  0.1571399E+01
  0.3071780E+01  0.4551670E+00  0.1571401E+01
  0.3106686E+01  0.4540718E+00  0.1571403E+01
  0.3141593E+01  0.4556715E+00  0.1571416E+01
Zone t="Motion of body    1 at frequency  0.2000 rad/s",I=   181,F=POINT
 -0.3141593E+01  0.6168625E+00  0.1571914E+01
 -0.3106686E+01  0.6173335E+00  0.1571913E+01
 -0.3071780E+01  0.6151818E+00  0.1571912E+01
 -0.3036873E+01  0.6130952E+00  0.1571909E+01
 -0.3001966E+01  0.6112826E+00  0.1571920E+01
 -0.2967060E+01  0.6077289E+00  0.1571914E+01
 -0.2932153E+01  0.6035663E+00  0.1571916E+01
 -0.2897247E+01  0.5984154E+00  0.1571917E+01
 -0.2862340E+01  0.5928504E+00  0.1571914E+01
 -0.2827433E+01  0.5866243E+00  0.1571921E+01
 -0.2792527E+01  0.5797284E+00  0.1571911E+01
 -0.2757620E+01  0.5719078E+00  0.1571909E+01
 -0.2722714E+01  0.5636331E+00  0.1571917E+01
 -0.2687807E+01  0.5546729E+00  0.1571910E+01
 -0.2652900E+01  0.5447620E+00  0.1571914E+01
 -0.2617994E+01  0.5344158E+00  0.1571907E+01
 -0.2583087E+01  0.5234148E+00  0.1571909E+01
 -0.2548181E+01  0.5114085E+00  0.1571912E+01
 -0.2513274E+01  0.4990308E+00  0.1571918E+01
 -0.2478368E+01  0.4864325E+00  0.1571908E+01
 -0.2443461E+01  0.4725388E+00  0.1571920E+01
 -0.2408554E+01  0.4584329E+00  0.1571919E+01
 -0.2373648E+01  0.4438036E+00  0.1571915E+01
 -0.2338741E+01  0.4285953E+00  0.1571910E+01
 -0.2303835E+01  0.4127713E+00  0.1571918E+01
 -0.2268928E+01  0.3965468E+00  0.1571903E+01
 -0.2234021E+01  0.3801413E+00  0.1571903E+01
 -0.2199115E+01  0.3625577E+00  0.1571908E+01
 -0.2164208E+01  0.3449899E+00  0.1571901E+01
 -0.2129302E+01  0.3271973E+00  0.1571905E+01
 -0.2094395E+01  0.3086574E+00  0.1571903E+01
 -0.2059489E+01  0.2896483E+00  0.1571899E+01
 -0.2024582E+01  0.2706291E+00  0.1571887E+01
 -0.1989675E+01  0.2509964E+00  0.1571887E+01
 -0.1954769E+01  0.2311672E+00  0.1571912E+01
 -0.1919862E+01  0.2111824E+00  0.1571883E+01
 -0.1884956E+01  0.1906802E+00  0.1571881E+01
 -0.1850049E+01  0.1699845E+00  0.1571896E+01
 -0.1815143E+01  0.1491437E+00  0.1571909E+01
 -0.1780236E+01  0.1282520E+00  0.1571840E+01
 -0.1745329E+01  0.1075561E+00  0.1571904E+01
 -0.1710423E+01  0.8634633E-01  0.1571822E+01
 -0.1675516E+01  0.6447226E-01  0.1571861E+01
 -0.1640610E+01  0.4267158E-01  0.1571725E+01
 -0.1605703E+01  0.2392093E-01  0.1571701E+01
 -0.1570796E+01  0.1041486E-04  0.5413281E+00
 -0.1535890E+01  0.2357984E-01 -0.1569369E+01
 -0.1500983E+01  0.4269224E-01 -0.1569500E+01
 -0.1466077E+01  0.6450894E-01 -0.1569647E+01
 -0.1431170E+01  0.8634249E-01 -0.1569615E+01
 -0.1396263E+01  0.1074419E+00 -0.1569604E+01
 -0.1361357E+01  0.1282219E+00 -0.1569627E+01
 -0.1326450E+01  0.1491720E+00 -0.1569612E+01
 -0.1291544E+01  0.1699819E+00 -0.1569635E+01
 -0.1256637E+01  0.1906749E+00 -0.1569631E+01
 -0.1221731E+01  0.2111538E+00 -0.1569620E+01
 -0.1186824E+01  0.2311656E+00 -0.1569640E+01
 -0.1151917E+01  0.2509979E+00 -0.1569649E+01
 -0.1117011E+01  0.2706232E+00 -0.1569656E+01
 -0.1082104E+01  0.2896501E+00 -0.1569642E+01
 -0.1047198E+01  0.3086520E+00 -0.1569643E+01
 -0.1012291E+01  0.3271924E+00 -0.1569638E+01
 -0.9773844E+00  0.3449905E+00 -0.1569649E+01
 -0.9424778E+00  0.3625531E+00 -0.1569654E+01
 -0.9075713E+00  0.3801434E+00 -0.1569653E+01
 -0.8726646E+00  0.3965447E+00 -0.1569644E+01
 -0.8377581E+00  0.4127830E+00 -0.1569648E+01
 -0.8028514E+00  0.4286137E+00 -0.1569666E+01
 -0.7679449E+00  0.4438043E+00 -0.1569658E+01
 -0.7330383E+00  0.4584287E+00 -0.1569658E+01
 -0.6981317E+00  0.4725454E+00 -0.1569647E+01
 -0.6632251E+00  0.4864339E+00 -0.1569642E+01
 -0.6283185E+00  0.4990340E+00 -0.1569652E+01
 -0.5934120E+00  0.5114112E+00 -0.1569645E+01
 -0.5585054E+00  0.5234200E+00 -0.1569649E+01
 -0.5235988E+00  0.5342783E+00 -0.1569655E+01
 -0.4886922E+00  0.5447676E+00 -0.1569663E+01
 -0.4537856E+00  0.5546726E+00 -0.1569652E+01
 -0.4188790E+00  0.5636086E+00 -0.1569653E+01
 -0.3839725E+00  0.5719029E+00 -0.1569654E+01
 -0.3490659E+00  0.5797414E+00 -0.1569650E+01
 -0.3141593E+00  0.5867809E+00 -0.1569653E+01
 -0.2792527E+00  0.5928522E+00 -0.1569657E+01
 -0.2443461E+00  0.5984103E+00 -0.1569656E+01
 -0.2094395E+00  0.6035725E+00 -0.1569653E+01
 -0.1745329E+00  0.6077462E+00 -0.1569655E+01
 -0.1396263E+00  0.6112807E+00 -0.1569653E+01