VARIABLES="w (rad/s)"
"A   1   1" "B   1   1"
"A   1   2" "B   1   2"
"A   1   3" "B   1   3"
"A   1   4" "B   1   4"
"A   1   5" "B   1   5"
"A   1   6" "B   1   6"
Zone t="Motion of body    1 in DoF   7",I=    40,F=POINT
  0.5000000E-01  0.3268529E+06  0.2757401E+01 -0.6866454E-03 -0.1024455E-07 -0.2191162E+00 -0.6410247E-02  0.3204345E-02 -0.1862645E-07  0.2393458E+06  0.3559793E+01 -0.5569458E-02 -0.3306195E-07
  0.9999999E-01  0.3287380E+06  0.2238532E+02  0.9155274E-03  0.3725290E-07 -0.1504135E+00 -0.1311740E-01  0.1525879E-02 -0.2086163E-06  0.2414373E+06  0.2887590E+02  0.1072693E+00  0.8754432E-06
  0.1500000E+00  0.3298128E+06  0.7718538E+02 -0.5594890E-03 -0.5960464E-07 -0.2512614E-01 -0.1192704E-01  0.6103516E-03 -0.1192093E-05  0.2430423E+06  0.9940592E+02 -0.1749675E-01 -0.5006790E-05
  0.2000000E+00  0.3315052E+06  0.1885903E+03  0.6103516E-03 -0.8344650E-06  0.2190018E+00  0.5798042E-02 -0.7629395E-03  0.1668930E-05  0.2452407E+06  0.2422840E+03  0.4356385E-01 -0.1049042E-04
  0.2500000E+00  0.3343547E+06  0.3833549E+03  0.0000000E+00  0.2145767E-05 -0.3497620E+00 -0.6736672E-01 -0.1708984E-02 -0.2384186E-05  0.2482332E+06  0.4906610E+03 -0.1033325E+00  0.2634525E-04
  0.3000000E+00  0.3369422E+06  0.6947907E+03  0.2543131E-03  0.2384186E-06  0.2472432E+00  0.1206779E-01  0.0000000E+00  0.9536743E-06  0.2512502E+06  0.8854985E+03 -0.1017253E-01 -0.1974106E-03
  0.3500000E+00  0.3404506E+06  0.1168675E+04  0.1220703E-02 -0.4291534E-05  0.9447370E-01 -0.1496935E-01 -0.5231585E-03 -0.2479553E-04  0.2549738E+06  0.1481650E+04  0.4185268E-02  0.1192093E-05
  0.4000001E+00  0.3450732E+06  0.1866674E+04 -0.7629393E-04 -0.4768372E-06  0.5314254E+00  0.9253502E-01  0.9155271E-03 -0.3433228E-04  0.2598307E+06  0.2351571E+04  0.1686096E-01  0.1084805E-03
  0.4499998E+00  0.3498072E+06  0.2871040E+04  0.6781687E-04  0.0000000E+00 -0.3075495E-01 -0.1647663E-01 -0.1627605E-02 -0.7629395E-05  0.2650501E+06  0.3591408E+04 -0.1532661E-01 -0.2875328E-03
  0.5000001E+00  0.3547838E+06  0.4288192E+04  0.2441406E-03  0.5722046E-05 -0.5963134E-01 -0.5516815E-01 -0.1953125E-02  0.5722046E-04  0.2701258E+06  0.5322542E+04 -0.1464844E-02 -0.3423691E-03
  0.5500002E+00  0.3620450E+06  0.6304039E+04 -0.5548649E-04 -0.2861023E-04  0.1768354E+00  0.3604889E-03 -0.1109730E-02  0.7629395E-04  0.2777573E+06  0.7754838E+04  0.5970347E-01 -0.5235672E-03
  0.5999997E+00  0.3698132E+06  0.9096914E+04  0.1017253E-02  0.3051758E-04 -0.4292808E-01 -0.8717728E-01 -0.4069012E-03  0.6103516E-04  0.2860018E+06  0.1108573E+05 -0.9694421E-01 -0.1708984E-02
  0.6500000E+00  0.3777667E+06  0.1300715E+05 -0.9390024E-03  0.7247925E-04 -0.5770170E-01 -0.9597015E-01 -0.1126803E-02  0.6103516E-04  0.2938010E+06  0.1567411E+05  0.2206656E-01  0.1449585E-03
  0.6999999E+00  0.3867432E+06  0.1845799E+05  0.8719308E-04  0.7629395E-04  0.3208706E-01 -0.1099968E+00 -0.1569476E-02 -0.2288818E-03  0.3028997E+06  0.2197811E+05 -0.4708427E-02  0.3559113E-02
  0.7500000E+00  0.3973224E+06  0.2588465E+05 -0.1220703E-02 -0.1144409E-03  0.8015951E-02 -0.1109848E+00  0.1302083E-02 -0.4577637E-03  0.3136998E+06  0.3050007E+05  0.2083333E-01 -0.1800537E-02
  0.8000000E+00  0.4086947E+06  0.3618824E+05 -0.3814697E-03 -0.2593994E-03  0.4596710E-01 -0.1061096E+00 -0.1220703E-02  0.5493164E-03  0.3247472E+06  0.4207990E+05  0.6752014E-01  0.1174927E-02
  0.8500000E+00  0.4203248E+06  0.5032565E+05  0.3590303E-03  0.3051758E-04  0.5493164E-01 -0.1118927E+00 -0.3446691E-02 -0.3662109E-03  0.3361938E+06  0.5767098E+05  0.8760340E-02  0.1388550E-01
  0.8999999E+00  0.4307885E+06  0.6888945E+05 -0.4069011E-03  0.0000000E+00  0.6557889E-01 -0.1084900E+00 -0.1627604E-02  0.3051758E-03  0.3458329E+06  0.7793364E+05 -0.5832249E-02 -0.6530762E-02
  0.9499999E+00  0.4389906E+06  0.9313880E+05  0.1027961E-02  0.4882812E-03  0.8358605E-01 -0.1006470E+00  0.1284951E-02 -0.7324219E-03  0.3521409E+06  0.1038142E+06  0.7080079E-01 -0.1612854E-01
  0.9999999E+00  0.4455688E+06  0.1242453E+06 -0.1831055E-02 -0.8544922E-03  0.6921387E-01 -0.7434082E-01 -0.1220703E-02  0.2441406E-03  0.3575425E+06  0.1365406E+06  0.6823731E-01  0.1675415E-01
  0.1050000E+01  0.4477416E+06  0.1614242E+06  0.0000000E+00  0.6713867E-03  0.1125372E+00 -0.4452515E-01 -0.1860119E-02  0.7324219E-03  0.3584890E+06  0.1754799E+06  0.2127511E-01 -0.2471924E-01
  0.1100000E+01  0.4428329E+06  0.2039798E+06  0.8877841E-03  0.1037598E-02  0.1149126E+00 -0.1206665E+00 -0.4438921E-03 -0.2441406E-03  0.3511064E+06  0.2187768E+06  0.8356269E-01  0.2062988E-01
  0.1150000E+01  0.4309551E+06  0.2511682E+06 -0.8491849E-03 -0.1220703E-03  0.9861159E-01 -0.9790039E-01  0.1910666E-02  0.4882812E-03  0.3365324E+06  0.2656322E+06 -0.2897843E-01  0.3582764E-01
  0.1200000E+01  0.4124425E+06  0.2993177E+06  0.1017253E-03 -0.1098633E-02  0.1088460E+00 -0.9942627E-01  0.6103516E-03 -0.7324219E-03  0.3170617E+06  0.3136891E+06  0.8239747E-02  0.1696777E-01
  0.1250000E+01  0.3872675E+06  0.3446208E+06  0.7812500E-03 -0.7324219E-03  0.1131348E+00 -0.8825684E-01  0.1953125E-03  0.9765625E-03  0.2899496E+06  0.3575727E+06  0.5029296E-01  0.7263184E-02
  0.1300000E+01  0.3572577E+06  0.3852467E+06 -0.5634015E-03 -0.2441406E-03  0.1143001E+00 -0.7202148E-01  0.5634015E-03  0.0000000E+00  0.2582921E+06  0.3952312E+06 -0.6197416E-02 -0.9204102E-01
  0.1350000E+01  0.3241829E+06  0.4193275E+06  0.0000000E+00 -0.2319336E-02  0.1240596E+00  0.3112793E-02 -0.3616899E-03 -0.2929688E-02  0.2257217E+06  0.4267192E+06 -0.1482928E-01 -0.1058350E+00
  0.1400000E+01  0.2911579E+06  0.4455814E+06 -0.1307896E-03 -0.2441406E-03  0.1129150E+00  0.2453613E-01 -0.2615793E-03 -0.2441406E-03  0.1932620E+06  0.4511489E+06 -0.2066476E-01  0.8410645E-01
  0.1450000E+01  0.2594213E+06  0.4638641E+06 -0.1052330E-03  0.4882812E-03  0.1035809E+00  0.2612305E-01  0.5051185E-03 -0.7324219E-03  0.1620358E+06  0.4668839E+06 -0.5286907E-01  0.1077881E+00
  0.1500000E+01  0.2295644E+06  0.4751918E+06 -0.1678467E-03 -0.2929688E-02  0.8388264E-01 -0.7385254E-02  0.2441406E-03 -0.6347656E-02  0.1331769E+06  0.4746362E+06 -0.8951821E-02  0.4858398E-01
  0.1550000E+01  0.2023607E+06  0.4804960E+06 -0.3642421E-03 -0.2685547E-02  0.9384648E-01 -0.8544922E-03 -0.2559539E-03  0.5126953E-02  0.1081364E+06  0.4787692E+06  0.3276210E-01  0.1464844E-01
  0.1600000E+01  0.1784690E+06  0.4811811E+06 -0.2670288E-03  0.7324219E-03  0.8875608E-01 -0.4211426E-02 -0.2384186E-03 -0.4882812E-03  0.8615223E+05  0.4792572E+06  0.3662110E-02 -0.1071777E+00
  0.1650000E+01  0.1576787E+06  0.4785036E+06  0.0000000E+00  0.2685547E-02  0.7723319E-01  0.2441406E-02  0.3352310E-03  0.1464844E-02  0.6663252E+05  0.4756943E+06  0.5585643E-02  0.6860352E-01
  0.1700000E+01  0.1392486E+06  0.4723390E+06  0.5385456E-03 -0.1220703E-02  0.5506179E-01  0.1235962E-01 -0.9087957E-04 -0.6103516E-03  0.5033561E+05  0.4695663E+06  0.1920813E-01 -0.1489258E-01
  0.1750000E+01  0.1232740E+06  0.4644651E+06 -0.1046317E-03 -0.1220703E-03  0.7179479E-01  0.2774048E-01  0.5667551E-04  0.1220703E-03  0.3614265E+05  0.4610465E+06 -0.5336218E-02  0.1220703E-02
  0.1800000E+01  0.1090228E+06  0.4543103E+06 -0.4747179E-03 -0.1220703E-02  0.5490462E-01  0.1815796E-01  0.7353890E-03  0.1831055E-02  0.2380512E+05  0.4534666E+06  0.5086264E-03 -0.1318359E-01
  0.1850000E+01  0.9661268E+05  0.4428276E+06 -0.7258236E-03  0.0000000E+00  0.6784569E-01  0.3942871E-01  0.9392404E-03  0.3662109E-03  0.1277066E+05  0.4447022E+06 -0.3810574E-02  0.9765625E-02
  0.1900000E+01  0.8566217E+05  0.4298038E+06  0.2569902E-03  0.1220703E-03  0.5466261E-01  0.4383850E-01  0.8432489E-04  0.3051758E-03  0.2939487E+04  0.4335098E+06  0.1795719E-01 -0.2124023E-01
  0.1950000E+01  0.7599893E+05  0.4140468E+06  0.1252003E-03  0.7324219E-03  0.5374420E-01  0.4133606E-01  0.4303762E-03  0.1098633E-02 -0.5401783E+04  0.4216712E+06  0.1593174E-01  0.6958008E-02
  0.2000000E+01  0.6792183E+05  0.3968346E+06  0.2441407E-03  0.6103516E-04  0.4732895E-01  0.2255249E-01 -0.7629395E-04 -0.2441406E-03 -0.1255420E+05  0.4074980E+06  0.4516602E-02  0.3491211E-01
Zone t="Motion of body    1 in DoF   7",I=    40,F=POINT
  0.5000000E-01 -0.5507469E-03  0.1263106E-07  0.3268529E+06  0.2757247E+01 -0.5111694E-02  0.7357448E-07 -0.2393458E+06 -0.3561136E+01 -0.4577636E-03 -0.3725290E-08 -0.1200414E+00 -0.3214396E-04
  0.9999999E-01 -0.7057191E-03 -0.1410954E-06  0.3287380E+06  0.2238525E+02  0.1472473E-01 -0.8344650E-06 -0.2414371E+06 -0.2887626E+02 -0.1068115E-02  0.0000000E+00 -0.7405639E-01  0.2121215E-03
  0.1500000E+00 -0.4768372E-03  0.7636845E-07  0.3298129E+06  0.7718386E+02  0.2136231E-02 -0.2622604E-05 -0.2430422E+06 -0.9940605E+02  0.1831055E-02  0.1192093E-06 -0.1482320E+00  0.7551629E-04
  0.2000000E+00  0.2598763E-03 -0.5550683E-06  0.3315053E+06  0.1885916E+03 -0.1373291E-02 -0.5304813E-05 -0.2452405E+06 -0.2422828E+03  0.1373291E-02 -0.2384186E-06 -0.1545990E+00 -0.8498318E-04
  0.2500000E+00  0.6656646E-03  0.1505017E-05  0.3343551E+06  0.3833584E+03 -0.4974365E-02 -0.5841255E-05 -0.2482336E+06 -0.4906522E+03  0.9765624E-03  0.1430511E-05 -0.2269783E+00  0.8736551E-04
  0.3000000E+00 -0.5181630E-03 -0.1892447E-05  0.3369423E+06  0.6947910E+03  0.6663004E-02  0.5245209E-05 -0.2512505E+06 -0.8854966E+03  0.0000000E+00  0.5722046E-05  0.1111317E+00  0.1137555E-03
  0.3500000E+00 -0.9890966E-03 -0.9715557E-05  0.3404503E+06  0.1168674E+04 -0.1238142E-01 -0.4267693E-04 -0.2549737E+06 -0.1481650E+04 -0.1569476E-02  0.0000000E+00 -0.1784120E+00  0.1530275E-03
  0.4000001E+00  0.3027915E-03 -0.2801418E-05  0.3450727E+06  0.1866668E+04  0.4348754E-02 -0.7295609E-04 -0.2598307E+06 -0.2351566E+04  0.1983642E-02 -0.9536743E-05  0.1163971E+00 -0.1478195E-04
  0.4499998E+00 -0.1864964E-03 -0.4917383E-04  0.3498075E+06  0.2871045E+04 -0.6747779E-02  0.3147125E-04 -0.2650506E+06 -0.3591420E+04  0.2712675E-02  0.2288818E-04  0.2475316E-02  0.2197951E-02
  0.5000001E+00 -0.2555847E-03  0.8583069E-05  0.3547841E+06  0.4288200E+04 -0.1464844E-02  0.2861023E-05 -0.2701264E+06 -0.5322550E+04  0.9765624E-03 -0.3814697E-05  0.1529379E+00  0.2695143E-02
  0.5500002E+00  0.3433226E-03  0.2133846E-04  0.3620452E+06  0.6304047E+04  0.3273703E-02  0.5149841E-04 -0.2777576E+06 -0.7754836E+04  0.0000000E+00  0.7629395E-04  0.3355719E-01 -0.9596348E-04
  0.5999997E+00 -0.1691183E-02  0.5483627E-05  0.3698128E+06  0.9096895E+04 -0.6306969E-02 -0.3280640E-03 -0.2860013E+06 -0.1108573E+05 -0.4882814E-02  0.1373291E-03 -0.1574898E+00 -0.1223266E-02
  0.6500000E+00 -0.8597741E-03 -0.2288818E-04  0.3777668E+06  0.1300715E+05 -0.1878005E-03  0.8392334E-04 -0.2938011E+06 -0.1567411E+05  0.1878005E-03 -0.6103516E-04 -0.1765178E-01 -0.1051307E-02
  0.6999999E+00 -0.1089914E-04  0.5435944E-04  0.3867432E+06  0.1845800E+05 -0.7411413E-03  0.2174377E-03 -0.3028999E+06 -0.2197811E+05  0.1046317E-02 -0.4577637E-04 -0.2008289E+00 -0.5921602E-02
  0.7500000E+00 -0.8544922E-03 -0.1068115E-03  0.3973219E+06  0.2588467E+05  0.6510417E-03  0.4730225E-03 -0.3136998E+06 -0.3050009E+05  0.0000000E+00  0.1220703E-03 -0.1668065E+00  0.5118847E-03
  0.8000000E+00  0.5960464E-03 -0.1583099E-03  0.4086946E+06  0.3618822E+05 -0.1907349E-02  0.2288818E-04 -0.3247473E+06 -0.4207992E+05  0.0000000E+00 -0.3051758E-04 -0.2472067E+00 -0.1079965E-01
  0.8500000E+00  0.4487879E-03  0.1125336E-03  0.4203247E+06  0.5032561E+05 -0.4308364E-03  0.2609253E-02 -0.3361937E+06 -0.5767093E+05  0.2585019E-02 -0.2441406E-03 -0.1981803E+00 -0.7063389E-02
  0.8999999E+00 -0.1445347E-02  0.1888275E-03  0.4307883E+06  0.6888941E+05  0.3865560E-02  0.5798340E-03 -0.3458328E+06 -0.7793359E+05 -0.1356337E-02  0.1831055E-03  0.4499012E-01 -0.1590157E-01
  0.9499999E+00  0.2381175E-02 -0.4386902E-03  0.4389904E+06  0.9313877E+05  0.7709705E-02  0.5493164E-03 -0.3521407E+06 -0.1038141E+06  0.1027961E-02  0.6103516E-03 -0.5149842E-02 -0.3125763E-01
  0.9999999E+00  0.5531312E-03 -0.3318787E-03  0.4455690E+06  0.1242454E+06 -0.9216310E-02 -0.1831055E-03 -0.3575426E+06 -0.1365406E+06  0.2441406E-02  0.1220703E-02 -0.7237434E-01 -0.3638077E-01
  0.1050000E+01  0.4141671E-03 -0.9536743E-04  0.4477417E+06  0.1614242E+06  0.5754743E-02  0.1525879E-03 -0.3584888E+06 -0.1754798E+06 -0.1395089E-02  0.1220703E-03 -0.6040845E-01 -0.3195763E-01
  0.1100000E+01  0.1151345E-02 -0.8316040E-03  0.4428331E+06  0.2039798E+06  0.3384677E-02  0.1403809E-02 -0.3511063E+06 -0.2187768E+06  0.4438921E-03  0.2441406E-03 -0.7361499E-01  0.1835060E-01
  0.1150000E+01  0.2521018E-02  0.1754761E-03  0.4309551E+06  0.2511683E+06  0.5944294E-02  0.1342773E-02 -0.3365323E+06 -0.2656322E+06 -0.2547555E-02  0.1220703E-02 -0.8865026E-02 -0.1971817E-01
  0.1200000E+01  0.8265178E-04  0.2365112E-03  0.4124428E+06  0.2993177E+06  0.7324219E-02  0.1342773E-02 -0.3170616E+06 -0.3136892E+06  0.1424154E-02 -0.1708984E-02 -0.1295424E+00 -0.4224396E-01
  0.1250000E+01  0.3051758E-04  0.6103516E-04  0.3872676E+06  0.3446208E+06 -0.1464844E-02 -0.9643555E-02 -0.2899497E+06 -0.3575728E+06 -0.1171875E-02 -0.6103516E-02 -0.1552124E+00 -0.9020996E-01
  0.1300000E+01 -0.5076482E-03  0.1182556E-02  0.3572576E+06  0.3852467E+06 -0.3967286E-02  0.5065918E-02 -0.2582920E+06 -0.3952313E+06 -0.1878005E-03 -0.3173828E-02 -0.1926863E+00  0.1231766E-01
  0.1350000E+01  0.4436352E-03  0.2166748E-02  0.3241827E+06  0.4193273E+06  0.1085070E-02  0.1031494E-01 -0.2257215E+06 -0.4267191E+06  0.0000000E+00  0.2197266E-02 -0.1123337E+00 -0.2843475E-01
  0.1400000E+01 -0.3371920E-04 -0.1632690E-02  0.2911580E+06  0.4455816E+06 -0.2158029E-02  0.2258301E-02 -0.1932620E+06 -0.4511490E+06 -0.2615793E-03  0.9765625E-03 -0.1160538E+00  0.2826691E-01
  0.1450000E+01 -0.9865595E-04 -0.2487183E-02  0.2594214E+06  0.4638642E+06  0.1241750E-02  0.7324219E-03 -0.1620358E+06 -0.4668842E+06  0.8839573E-03  0.1708984E-02  0.8915868E-02 -0.3121185E-01
  0.1500000E+01  0.3560384E-04  0.7629395E-03  0.2295644E+06  0.4751918E+06 -0.2034505E-02  0.8911133E-02 -0.1331768E+06 -0.4746362E+06  0.1627604E-03  0.0000000E+00 -0.5188623E-02  0.6727982E-01
  0.1550000E+01  0.2534928E-03 -0.2777100E-02  0.2023608E+06  0.4804962E+06 -0.4036196E-03 -0.1953125E-02 -0.1081364E+06 -0.4787693E+06  0.5906628E-04  0.6591797E-02 -0.4074712E-01 -0.1860619E+00
  0.1600000E+01 -0.8583069E-03  0.2273560E-02  0.1784691E+06  0.4811811E+06  0.1120567E-03 -0.3112793E-02 -0.8615221E+05 -0.4792572E+06 -0.9536743E-05 -0.2197266E-02 -0.6541252E-01 -0.5201721E-01
  0.1650000E+01  0.5086264E-04 -0.1632690E-02  0.1576786E+06  0.4785038E+06  0.7912609E-03  0.2685547E-02 -0.6663248E+05 -0.4756946E+06 -0.1733954E-03 -0.4882812E-03 -0.1146005E+00 -0.8513641E-01
  0.1700000E+01  0.1974667E-03  0.1968384E-02  0.1392485E+06  0.4723389E+06  0.2269184E-03  0.4333496E-02 -0.5033553E+05 -0.4695662E+06 -0.1840031E-03  0.1708984E-02 -0.3265157E-01 -0.4931259E-01
  0.1750000E+01  0.2702986E-03  0.8697510E-03  0.1232740E+06  0.4644651E+06  0.3335136E-03  0.3112793E-02 -0.3614257E+05 -0.4610465E+06 -0.7171631E-03 -0.7324219E-03  0.2271380E-02  0.4947662E-02
  0.1800000E+01 -0.3899469E-03 -0.5264282E-03  0.1090228E+06  0.4543102E+06 -0.1706018E-03  0.1434326E-02 -0.2380503E+05 -0.4534666E+06 -0.5552504E-03  0.1098633E-02  0.4481634E-01  0.8304977E-01
  0.1850000E+01 -0.5278717E-03  0.1224518E-02  0.9661268E+05  0.4428275E+06  0.4386903E-03  0.7019043E-03 -0.1277061E+05 -0.4447023E+06  0.1840334E-03 -0.1098633E-02  0.3160426E-01 -0.4543877E-01
  0.1900000E+01  0.6585373E-03 -0.6332397E-03  0.8566218E+05  0.4298038E+06  0.4216245E-03  0.2929688E-02 -0.2939430E+04 -0.4335100E+06 -0.5099648E-03 -0.3662109E-03 -0.2040863E-01 -0.5963516E-01
  0.1950000E+01 -0.7042519E-04 -0.3719330E-04  0.7599893E+05  0.4140470E+06 -0.9272651E-03  0.3143311E-02  0.5401872E+04 -0.4216713E+06 -0.2504007E-03  0.5493164E-03 -0.5952885E-01  0.1993179E-01
  0.2000000E+01 -0.8010864E-03 -0.8583069E-04  0.6792181E+05  0.3968346E+06 -0.2632141E-03  0.4837036E-02  0.1255429E+05 -0.4074981E+06 -0.4119874E-03  0.7324219E-03 -0.1636696E-01  0.4440641E-01
Zone t="Motion of body    1 in DoF   7",I=    40,F=POINT
  0.5000000E-01 -0.3799438E-01 -0.1525879E-04  0.9002685E-02  0.3395081E-03  0.5650094E+06  0.6307882E+04  0.2325439E+00 -0.3295898E-02 -0.4785156E+00  0.8697510E-03 -0.1487732E-01  0.1859665E-03
  0.9999999E-01 -0.4028321E-01  0.9078979E-03  0.9231567E-02  0.1472473E-02  0.5140703E+06  0.1257190E+05 -0.4882813E-01 -0.2349854E-02 -0.5548096E+00 -0.8850098E-03  0.9422303E-02  0.6866455E-04
  0.1500000E+00 -0.1430257E+00  0.1281738E-02 -0.1576742E-01  0.1602173E-03  0.4821490E+06  0.1876711E+05 -0.6510417E-02 -0.3051758E-03 -0.8325197E+00  0.9979248E-02 -0.1607259E-01  0.1335144E-03
  0.2000000E+00 -0.1569367E+00  0.2639771E-02 -0.7171631E-02 -0.1083374E-02  0.4580722E+06  0.2487110E+05  0.4516602E-01 -0.3112793E-02 -0.6365967E+00 -0.2380371E-02  0.4196167E-02 -0.7476807E-03
  0.2500000E+00 -0.9832763E-01 -0.5645752E-03 -0.2868652E-02  0.2899170E-03  0.4388114E+06  0.3085259E+05  0.2021484E+00  0.1477051E-01 -0.6357421E+00  0.3356934E-02  0.2380371E-02  0.3623962E-03
  0.3000000E+00 -0.6520589E-01 -0.3814697E-03  0.8951822E-02  0.1892090E-02  0.4219095E+06  0.3669807E+05  0.9195963E-01 -0.2349854E-01 -0.4496256E+00 -0.7629395E-02  0.9714762E-02  0.1373291E-03
  0.3500000E+00 -0.1839774E-01 -0.1617432E-02  0.3470285E-01  0.4440308E-02  0.4089765E+06  0.4245933E+05  0.1862444E+00  0.1397705E-01 -0.5454800E+00  0.6103516E-02  0.9155274E-02 -0.2670288E-03
  0.4000001E+00 -0.8926390E-02 -0.3295898E-02  0.1594543E-01 -0.5889893E-02  0.3959885E+06  0.4789429E+05 -0.3662109E-01  0.3784180E-02 -0.4266357E+00  0.7934570E-02 -0.2288818E-02 -0.3814697E-03
  0.4499998E+00  0.6083173E-01 -0.3173828E-02 -0.1695422E-02 -0.6408691E-03  0.3859400E+06  0.5337506E+05  0.4231773E-01 -0.1086426E-01  0.3933378E+00 -0.6591797E-02 -0.9257003E-02  0.1731873E-02
  0.5000001E+00  0.1477051E-01  0.1922607E-02 -0.4577636E-02  0.3479004E-02  0.3741503E+06  0.5822025E+05  0.1562500E-01  0.2038574E-01  0.3027344E-01  0.6591797E-02  0.2563476E-02  0.3341675E-02
  0.5500002E+00 -0.1322798E+00 -0.3601074E-02  0.6325460E-02 -0.4455566E-02  0.3657822E+06  0.6318691E+05 -0.5726206E-01  0.3771973E-01 -0.9632455E+00 -0.1708984E-01  0.9127527E-02  0.9765625E-03
  0.5999997E+00 -0.1118978E-02  0.7324219E-03 -0.9613041E-02  0.4333496E-02  0.3556277E+06  0.6749230E+05 -0.3011069E-01  0.1757812E-01 -0.3617352E+00  0.6469727E-02 -0.3547670E-02 -0.1068115E-03
  0.6500000E+00 -0.2831092E-01 -0.7629395E-03  0.6103516E-02  0.1037598E-02  0.3465371E+06  0.7115201E+05 -0.1363432E+00 -0.1269531E-01 -0.1355919E+00  0.2197266E-01  0.5270150E-02  0.1419067E-02
  0.6999999E+00 -0.7952010E-01  0.4150391E-02 -0.2179827E-02 -0.5798340E-02  0.3398831E+06  0.7557455E+05 -0.3731864E+00  0.1794434E-01 -0.7299805E+00  0.3137207E-01 -0.4686628E-02  0.3051758E-04
  0.7500000E+00 -0.5655924E-01 -0.2227783E-01  0.4964192E-02  0.9399414E-02  0.3302580E+06  0.7752017E+05  0.5501302E+00 -0.3283691E-01 -0.4589844E+00  0.1318359E-01  0.3560384E-03 -0.9613037E-03
  0.8000000E+00 -0.9880066E-01 -0.3070068E-01 -0.1220703E-02  0.1281738E-02  0.3229041E+06  0.7918376E+05  0.3631592E-01  0.1293945E-01 -0.5868530E+00  0.5224609E-01 -0.2985001E-02  0.3234863E-02
  0.8500000E+00 -0.9593291E-01 -0.4516602E-02  0.4128849E-03  0.2990723E-02  0.3169421E+06  0.8232525E+05  0.6721048E-01  0.5859375E-02 -0.5224609E+00  0.7080078E-02 -0.3141516E-03  0.1174927E-02
  0.8999999E+00 -0.7368301E-01 -0.1263428E-01 -0.4001194E-02  0.1049805E-01  0.3086775E+06  0.8095985E+05 -0.1459419E+00  0.2929688E-02 -0.3195530E+00  0.1562500E-01 -0.6188287E-03  0.9963989E-02
  0.9499999E+00 -0.8577047E-01 -0.1562500E-01 -0.2023797E-02 -0.9582520E-02  0.3029582E+06  0.7949312E+05  0.2117599E+00  0.7324219E-03 -0.5944182E+00 -0.6274414E-01  0.1019930E-02  0.1861572E-02
  0.9999999E+00 -0.8641053E-01 -0.4406738E-01 -0.1073456E-01 -0.6225586E-02  0.2986367E+06  0.8072884E+05 -0.5517578E-01  0.5249023E-01 -0.4956055E+00  0.2685547E-02  0.1121521E-02 -0.3417969E-02
  0.1050000E+01 -0.1127697E+00 -0.4272461E-01  0.3781999E-02 -0.1873779E-01  0.2931087E+06  0.7589748E+05 -0.1276507E+00 -0.1342773E-02 -0.5129278E+00 -0.4589844E-01  0.1307896E-02 -0.3326416E-02
  0.1100000E+01 -0.1003890E+00 -0.5133057E-01  0.1452132E-02 -0.1464844E-02  0.2899198E+06  0.7097078E+05  0.1480380E+00 -0.1757812E-01 -0.4658647E+00 -0.3320312E-01 -0.1619513E-02  0.5432129E-02
  0.1150000E+01 -0.8661354E-01 -0.8575439E-01  0.2056620E-03 -0.1147461E-01  0.2878642E+06  0.6839786E+05  0.4373302E-01  0.1623535E-01 -0.5967647E+00 -0.2404785E-01  0.6418643E-03  0.1953125E-02
  0.1200000E+01 -0.6839753E-01 -0.1199341E+00 -0.7375082E-03 -0.1464844E-02  0.2851528E+06  0.6384781E+05  0.2746582E-01  0.5273438E-01 -0.4506429E+00 -0.4565430E-01  0.3576279E-03 -0.2014160E-02
  0.1250000E+01 -0.5382690E-01 -0.9436035E-01  0.1586914E-03 -0.7751465E-02  0.2846466E+06  0.5665759E+05  0.1332031E+00 -0.1293945E-01 -0.5015624E+00 -0.7470703E-01 -0.2838135E-03  0.9490967E-02
  0.1300000E+01 -0.5077656E-01 -0.1085205E+00  0.1995380E-03 -0.9521484E-02  0.2854939E+06  0.5153198E+05  0.6948619E-02  0.2197266E-02 -0.4584210E+00 -0.6958008E-01 -0.6837112E-03 -0.3234863E-02
  0.1350000E+01 -0.4996971E-01 -0.1388550E+00  0.8364078E-03  0.7507324E-02  0.2845790E+06  0.4839241E+05 -0.5859376E-01  0.1635742E-01 -0.4890047E+00 -0.7910156E-01 -0.3390842E-03  0.5554199E-02
  0.1400000E+01 -0.3691537E-01 -0.2000732E+00  0.3705706E-03 -0.2746582E-02  0.2858646E+06  0.4148758E+05 -0.1813616E-01  0.1428223E-01 -0.4485213E+00 -0.1406250E+00 -0.1580375E-03  0.3601074E-02
  0.1450000E+01 -0.1654263E-01 -0.1722412E+00  0.3998855E-03  0.1135254E-01  0.2880198E+06  0.3567308E+05  0.2222521E-01 -0.1300049E-01 -0.5233027E+00 -0.1337280E+00  0.1157563E-03 -0.7171631E-02
  0.1500000E+01  0.1607259E-02 -0.1174316E+00  0.2034505E-04  0.5432129E-02  0.2901578E+06  0.3154525E+05 -0.1542969E+00 -0.2117920E-01 -0.3375651E+00 -0.8355713E-01 -0.1271566E-03  0.7629395E-03
  0.1550000E+01  0.1161637E-01 -0.1514893E+00  0.0000000E+00  0.1239014E-01  0.2910437E+06  0.2789875E+05  0.1471144E+00 -0.5310059E-02 -0.4867061E+00 -0.8996582E-01  0.3248645E-03 -0.2929688E-02
  0.1600000E+01  0.1985550E-01 -0.1597290E+00  0.1907349E-04  0.5859375E-02  0.2930835E+06  0.2356411E+05  0.9765625E-02 -0.5493164E-02 -0.4714966E+00 -0.1082153E+00  0.5245209E-03 -0.7324219E-03
  0.1650000E+01  0.3216368E-01 -0.1292114E+00  0.1479640E-03 -0.1745605E-01  0.2957054E+06  0.1995831E+05 -0.7191052E-01 -0.8239746E-02 -0.4989347E+00 -0.7165527E-01  0.1017253E-03 -0.1434326E-02
  0.1700000E+01  0.3312055E-01 -0.1212769E+00  0.3231273E-03  0.2380371E-02  0.2979162E+06  0.1703715E+05  0.2432790E+00  0.1864624E-01 -0.4440488E+00 -0.8663940E-01 -0.1256606E-03 -0.2593994E-03
  0.1750000E+01  0.3109306E-01 -0.1299438E+00 -0.5231585E-03 -0.6622314E-02  0.2995697E+06  0.1435719E+05  0.2396764E+00  0.3479004E-02 -0.4525670E+00 -0.8975220E-01 -0.1482283E-03 -0.8697510E-03
  0.1800000E+01  0.4126655E-01 -0.1085205E+00  0.0000000E+00 -0.1373291E-02  0.3007348E+06  0.1190881E+05  0.2281359E+00 -0.8178711E-02 -0.3713651E+00 -0.8941650E-01  0.8477106E-04  0.2593994E-03
  0.1850000E+01  0.2926389E-01 -0.7543945E-01  0.3299198E-03 -0.2044678E-02  0.3026371E+06  0.1044485E+05  0.2177471E+00  0.1617432E-02 -0.3974874E+00 -0.5877686E-01 -0.3299198E-04 -0.1281738E-02
  0.1900000E+01  0.4399350E-01 -0.1133423E+00 -0.4176090E-03 -0.5371094E-02  0.3045646E+06  0.9245031E+04  0.4214639E-01  0.5203247E-02 -0.4204359E+00 -0.9582520E-01 -0.4497328E-03 -0.5493164E-03
  0.1950000E+01  0.4396097E-01 -0.8779907E-01 -0.1252003E-03 -0.5279541E-02  0.3059873E+06  0.8220050E+04  0.2085838E+00  0.1052856E-01 -0.3976363E+00 -0.5943298E-01 -0.1408504E-03 -0.5035400E-03
  0.2000000E+01  0.3903199E-01 -0.6683350E-01  0.9460450E-03  0.8850098E-03  0.3085463E+06  0.6351323E+04 -0.4516602E-01 -0.5172729E-02 -0.3745117E+00 -0.4884338E-01  0.9918214E-04 -0.2166748E-02
Zone t="Motion of body    1 in DoF   7",I=    40,F=POINT
  0.5000000E-01 -0.1673698E-02 -0.3259629E-08 -0.2397168E+06 -0.3593127E+01  0.1098633E-01  0.1490116E-07  0.1505960E+07  0.4642847E+01  0.1220703E-02 -0.4097819E-07 -0.1310694E+00  0.2520971E-04
  0.9999999E-01 -0.3886223E-03 -0.4982576E-07 -0.2423088E+06 -0.2913389E+02 -0.1495362E-01 -0.6407499E-06  0.1514660E+07  0.3758332E+02 -0.1525879E-01 -0.1490116E-06 -0.9036423E-01  0.2785278E-03
  0.1500000E+00  0.1990001E-02  0.1564622E-06 -0.2440826E+06 -0.1002539E+03 -0.5513510E-01 -0.4172325E-06  0.1516509E+07  0.1291302E+03  0.1220703E-01  0.4768372E-06 -0.8424283E-01  0.3172085E-04
  0.2000000E+00  0.6771088E-03  0.2160668E-06 -0.2464534E+06 -0.2442828E+03 -0.5645752E-02  0.6198883E-05  0.1519816E+07  0.3138550E+03 -0.8544923E-02 -0.1430511E-05  0.1021207E+00 -0.4058946E-03
  0.2500000E+00  0.1220703E-02  0.2175570E-05 -0.2495268E+06 -0.4947626E+03 -0.4907226E-01 -0.5722046E-05  0.1524547E+07  0.6332207E+03 -0.6835937E-02 -0.6198883E-05  0.7895183E-01  0.6732307E-03
  0.3000000E+00 -0.1230240E-02 -0.1007318E-04 -0.2525260E+06 -0.8928790E+03 -0.2970378E-01 -0.4935265E-04  0.1526397E+07  0.1138011E+04 -0.1627604E-02  0.1239777E-04 -0.2428086E+00  0.2374426E-03
  0.3500000E+00  0.6049020E-03 -0.4023314E-05 -0.2562132E+06 -0.1494228E+04 -0.1185826E-01  0.6723404E-04  0.1529781E+07  0.1894317E+04 -0.2092634E-02  0.1716614E-04 -0.2217715E+00 -0.1014769E-03
  0.4000001E+00 -0.5245208E-04  0.4172325E-05 -0.2611151E+06 -0.2371974E+04  0.1983642E-02 -0.6389618E-04  0.1536304E+07  0.2987808E+04  0.1159668E-01 -0.3814697E-05 -0.8477567E-01 -0.1928449E-02
  0.4499998E+00  0.1419916E-02 -0.4410744E-04 -0.2664348E+06 -0.3621936E+04 -0.4299589E-01  0.1335144E-03  0.1541373E+07  0.4532353E+04  0.0000000E+00  0.3433228E-04 -0.2139834E-01 -0.2686083E-03
  0.5000001E+00  0.3967285E-03  0.1192093E-05 -0.2717150E+06 -0.5370935E+04  0.2905273E-01  0.0000000E+00  0.1546616E+07  0.6666140E+04  0.4882812E-02 -0.5340576E-04 -0.1557598E+00 -0.1114488E-02
  0.5500002E+00  0.1584833E-02  0.2384186E-04 -0.2793306E+06 -0.7822570E+04  0.2530184E-01  0.1564026E-03  0.1555739E+07  0.9623468E+04  0.2308238E-01  0.3814697E-04  0.6527118E-01 -0.1893222E-02
  0.5999997E+00  0.2861024E-03 -0.1597404E-04 -0.2872766E+06 -0.1118762E+05 -0.3173830E-01 -0.6065369E-03  0.1561892E+07  0.1363046E+05  0.8138024E-02  0.1220703E-03 -0.4821780E-01  0.7008314E-03
  0.6500000E+00 -0.1097459E-02  0.2193451E-04 -0.2956444E+06 -0.1582528E+05  0.9014423E-02 -0.7705688E-03  0.1572898E+07  0.1906652E+05 -0.7512019E-02  0.3356934E-03 -0.6579179E-01  0.6091595E-03
  0.6999999E+00  0.6539481E-03  0.8583069E-05 -0.3049327E+06 -0.2218262E+05  0.1656669E-01 -0.6561279E-03  0.1581971E+07  0.2645197E+05  0.1534598E-01  0.0000000E+00  0.9185519E-01 -0.1691580E-02
  0.7500000E+00  0.1495361E-02  0.8583069E-04 -0.3153745E+06 -0.3081675E+05  0.4003906E-01  0.4730225E-03  0.1589798E+07  0.3627520E+05 -0.1953125E-02  0.3051758E-04  0.5290985E-01  0.5650997E-02
  0.8000000E+00  0.9679795E-03  0.3051758E-04 -0.3267807E+06 -0.4252920E+05 -0.8544922E-02  0.2517700E-03  0.1603862E+07  0.4940285E+05 -0.2319336E-01 -0.4272461E-03  0.2517700E-02  0.1237392E-01
  0.8500000E+00 -0.9873335E-03  0.0000000E+00 -0.3382400E+06 -0.5820802E+05  0.3805722E-01  0.3051758E-03  0.1614379E+07  0.6685705E+05 -0.1148897E-02 -0.3662109E-03 -0.7369547E-01  0.1904440E-01
  0.8999999E+00  0.1263089E-02 -0.4310608E-03 -0.3479364E+06 -0.7874630E+05  0.6700304E-01 -0.1007080E-02  0.1620700E+07  0.8906688E+05  0.1302083E-01  0.7934570E-03  0.6422044E-01 -0.1421642E-01
  0.9499999E+00  0.6183826E-03  0.1277924E-03 -0.3551960E+06 -0.1050852E+06  0.1207854E-01 -0.4180908E-02  0.1629280E+07  0.1171398E+06 -0.4111843E-02 -0.9765625E-03 -0.1312417E+00  0.8708954E-02
  0.9999999E+00  0.9231568E-03  0.2670288E-04 -0.3604265E+06 -0.1379773E+06 -0.3686524E-01  0.3662109E-02  0.1632821E+07  0.1521015E+06 -0.1953125E-02  0.1220703E-03 -0.1784668E+00  0.1745224E-03
  0.1050000E+01 -0.2107166E-03 -0.1022339E-02 -0.3607366E+06 -0.1772275E+06 -0.1209077E-01  0.1037598E-02  0.1627136E+07  0.1922817E+06  0.9300595E-02 -0.8544922E-03 -0.5617595E-01  0.1611710E-02
  0.1100000E+01  0.1338612E-02  0.1220703E-02 -0.3538372E+06 -0.2213897E+06  0.2663353E-02  0.9155273E-04  0.1620410E+07  0.2374048E+06  0.7990057E-02 -0.4882812E-03 -0.1298263E+00  0.1730537E-01
  0.1150000E+01 -0.2985416E-03 -0.1502991E-02 -0.3396558E+06 -0.2687524E+06  0.4458221E-02 -0.2075195E-02  0.1606902E+07  0.2844474E+06 -0.3396739E-02  0.3173828E-02 -0.8561508E-01  0.4514503E-01
  0.1200000E+01 -0.2352397E-03  0.7781982E-03 -0.3192685E+06 -0.3167016E+06  0.3356934E-01  0.1220703E-03  0.1579441E+07  0.3312342E+06  0.8138021E-03  0.0000000E+00 -0.5040487E-01 -0.2743912E-01
  0.1250000E+01 -0.6622314E-03 -0.6027222E-03 -0.2917385E+06 -0.3616758E+06  0.2265625E-01  0.3784180E-02  0.1550382E+07  0.3747739E+06 -0.1093750E-01  0.4882812E-03 -0.1702026E+00  0.5323029E-01
  0.1300000E+01 -0.1892677E-02  0.3738403E-02 -0.2599930E+06 -0.4002453E+06  0.6047176E-01 -0.2075195E-02  0.1522930E+07  0.4111435E+06  0.1352164E-01  0.2197266E-02 -0.2174414E+00  0.6235504E-01
  0.1350000E+01 -0.7502239E-03  0.2197266E-02 -0.2272685E+06 -0.4316172E+06  0.6148728E-01 -0.3967285E-02  0.1488862E+07  0.4403629E+06 -0.1157408E-01  0.4882812E-03 -0.1126770E+00  0.1586838E+00
  0.1400000E+01  0.2329690E-03  0.4577637E-04 -0.1941984E+06 -0.4559977E+06  0.4307338E-01 -0.5493164E-02  0.1451301E+07  0.4593292E+06  0.1395089E-02 -0.1708984E-02 -0.1966535E+00  0.6048965E-01
  0.1450000E+01  0.1657420E-03  0.3707886E-02 -0.1622130E+06 -0.4721880E+06 -0.2693965E-02 -0.5004883E-02  0.1421597E+07  0.4741357E+06 -0.2155172E-01 -0.2197266E-02 -0.4624070E-01  0.1170120E+00
  0.1500000E+01 -0.1411438E-03  0.2120972E-02 -0.1330535E+06 -0.4806097E+06  0.4361979E-01  0.8117676E-02  0.1399613E+07  0.4829510E+06  0.2343750E-01  0.3906250E-02 -0.2299270E+00 -0.1007462E-01