 TITLE = "C+SL"
 VARIABLES = "X","Y","Z","PRE1","PRE2","POMOD"
 ZONE T= "CARENE",I=         646 ,J=         588 ,F=FEPOINT
 -5.00000E+00 -2.10195E-44 -5.00000E+00 -5.06328E-01 -4.51530E-01  6.78416E-01
 -5.00000E+00 -2.10195E-44 -4.28571E+00 -6.29380E-01 -5.02729E-01  8.05516E-01
 -5.00000E+00 -2.10195E-44 -3.57143E+00 -7.16535E-01 -5.48145E-01  9.02156E-01
 -5.00000E+00 -2.10195E-44 -2.85714E+00 -7.94044E-01 -5.92727E-01  9.90874E-01
 -5.00000E+00 -2.10195E-44 -2.14286E+00 -8.69201E-01 -6.39105E-01  1.07887E+00
 -5.00000E+00 -2.10195E-44 -1.42857E+00 -9.44505E-01 -6.88333E-01  1.16871E+00
 -5.00000E+00 -2.10195E-44 -7.14286E-01 -1.02005E+00 -7.40669E-01  1.26059E+00
 -5.00000E+00 -2.10195E-44  2.50000E+00 -1.05775E+00 -7.67627E-01  1.30694E+00
 -5.00000E+00  7.14286E-01 -5.00000E+00 -5.16896E-01 -4.47477E-01  6.83680E-01
 -5.00000E+00  7.14286E-01 -4.28571E+00 -6.40397E-01 -4.97169E-01  8.10732E-01
 -5.00000E+00  7.14286E-01 -3.57143E+00 -7.28236E-01 -5.41668E-01  9.07597E-01
 -5.00000E+00  7.14286E-01 -2.85714E+00 -8.06500E-01 -5.85490E-01  9.96614E-01
 -5.00000E+00  7.14286E-01 -2.14286E+00 -8.82471E-01 -6.31160E-01  1.08495E+00
 -5.00000E+00  7.14286E-01 -1.42857E+00 -9.58630E-01 -6.79694E-01  1.17514E+00
 -5.00000E+00  7.14286E-01 -7.14286E-01 -1.03506E+00 -7.31352E-01  1.26737E+00
 -5.00000E+00  7.14286E-01  2.50000E+00 -1.07320E+00 -7.57977E-01  1.31388E+00
 -5.00000E+00  1.42857E+00 -5.00000E+00 -5.37120E-01 -4.40009E-01  6.94338E-01
 -5.00000E+00  1.42857E+00 -4.28571E+00 -6.60914E-01 -4.86614E-01  8.20732E-01
 -5.00000E+00  1.42857E+00 -3.57143E+00 -7.49689E-01 -5.29287E-01  9.17703E-01
 -5.00000E+00  1.42857E+00 -2.85714E+00 -8.29124E-01 -5.71620E-01  1.00707E+00
 -5.00000E+00  1.42857E+00 -2.14286E+00 -9.06481E-01 -6.15908E-01  1.09592E+00
 -5.00000E+00  1.42857E+00 -1.42857E+00 -9.84228E-01 -6.63082E-01  1.18675E+00
 -5.00000E+00  1.42857E+00 -7.14286E-01 -1.06246E+00 -7.13391E-01  1.27975E+00
 -5.00000E+00  1.42857E+00  2.50000E+00 -1.10157E+00 -7.39348E-01  1.32669E+00
 -5.00000E+00  2.14286E+00 -5.00000E+00 -5.55840E-01 -4.33945E-01  7.05172E-01
 -5.00000E+00  2.14286E+00 -4.28571E+00 -6.78612E-01 -4.77333E-01  8.29675E-01
 -5.00000E+00  2.14286E+00 -3.57143E+00 -7.67398E-01 -5.18228E-01  9.25991E-01
 -5.00000E+00  2.14286E+00 -2.85714E+00 -8.47246E-01 -5.59163E-01  1.01513E+00
 -5.00000E+00  2.14286E+00 -2.14286E+00 -9.25348E-01 -6.02176E-01  1.10403E+00
 -5.00000E+00  2.14286E+00 -1.42857E+00 -1.00416E+00 -6.48097E-01  1.19514E+00
 -5.00000E+00  2.14286E+00 -7.14286E-01 -1.08383E+00 -6.97163E-01  1.28869E+00
 -5.00000E+00  2.14286E+00  2.50000E+00 -1.12375E+00 -7.22503E-01  1.33598E+00
 -5.00000E+00  2.85714E+00 -5.00000E+00 -5.73560E-01 -4.29642E-01  7.16633E-01
 -5.00000E+00  2.85714E+00 -4.28571E+00 -6.93642E-01 -4.69701E-01  8.37710E-01
 -5.00000E+00  2.85714E+00 -3.57143E+00 -7.81345E-01 -5.08943E-01  9.32482E-01
 -5.00000E+00  2.85714E+00 -2.85714E+00 -8.60712E-01 -5.48645E-01  1.02070E+00
 -5.00000E+00  2.85714E+00 -2.14286E+00 -9.38745E-01 -5.90569E-01  1.10906E+00
 -5.00000E+00  2.85714E+00 -1.42857E+00 -1.01782E+00 -6.35440E-01  1.19989E+00
 -5.00000E+00  2.85714E+00 -7.14286E-01 -1.09811E+00 -6.83485E-01  1.29345E+00
 -5.00000E+00  2.85714E+00  2.50000E+00 -1.13847E+00 -7.08321E-01  1.34083E+00
 -5.00000E+00  3.57143E+00 -5.00000E+00 -5.90779E-01 -4.27766E-01  7.29386E-01
 -5.00000E+00  3.57143E+00 -4.28571E+00 -7.05689E-01 -4.64360E-01  8.44764E-01
 -5.00000E+00  3.57143E+00 -3.57143E+00 -7.90891E-01 -5.02197E-01  9.36862E-01
 -5.00000E+00  3.57143E+00 -2.85714E+00 -8.68749E-01 -5.40936E-01  1.02339E+00
 -5.00000E+00  3.57143E+00 -2.14286E+00 -9.45862E-01 -5.82053E-01  1.11060E+00
 -5.00000E+00  3.57143E+00 -1.42857E+00 -1.02440E+00 -6.26173E-01  1.20062E+00
 -5.00000E+00  3.57143E+00 -7.14286E-01 -1.10455E+00 -6.73520E-01  1.29370E+00
 -5.00000E+00  3.57143E+00  2.50000E+00 -1.14495E+00 -6.98023E-01  1.34095E+00
 -5.00000E+00  4.28571E+00 -5.00000E+00 -6.09000E-01 -4.30253E-01  7.45654E-01
 -5.00000E+00  4.28571E+00 -4.28571E+00 -7.13558E-01 -4.62977E-01  8.50596E-01
 -5.00000E+00  4.28571E+00 -3.57143E+00 -7.93933E-01 -4.99833E-01  9.38170E-01
 -5.00000E+00  4.28571E+00 -2.85714E+00 -8.68985E-01 -5.38062E-01  1.02208E+00
 -5.00000E+00  4.28571E+00 -2.14286E+00 -9.44252E-01 -5.78833E-01  1.10755E+00
 -5.00000E+00  4.28571E+00 -1.42857E+00 -1.02145E+00 -6.22658E-01  1.19627E+00
 -5.00000E+00  4.28571E+00 -7.14286E-01 -1.10073E+00 -6.69776E-01  1.28849E+00
 -5.00000E+00  4.28571E+00  2.50000E+00 -1.14082E+00 -6.94185E-01  1.33543E+00
 -5.00000E+00  5.00000E+00 -5.00000E+00 -6.28919E-01 -4.42730E-01  7.69122E-01
 -5.00000E+00  5.00000E+00 -4.28571E+00 -7.01394E-01 -4.72997E-01  8.45978E-01
 -5.00000E+00  5.00000E+00 -3.57143E+00 -7.75687E-01 -5.11309E-01  9.29046E-01
 -5.00000E+00  5.00000E+00 -2.85714E+00 -8.46669E-01 -5.50845E-01  1.01009E+00
 -5.00000E+00  5.00000E+00 -2.14286E+00 -9.18668E-01 -5.92877E-01  1.09337E+00
 -5.00000E+00  5.00000E+00 -1.42857E+00 -9.92994E-01 -6.37927E-01  1.18025E+00
 -5.00000E+00  5.00000E+00 -7.14286E-01 -1.06980E+00 -6.86213E-01  1.27097E+00
 -5.00000E+00  5.00000E+00  2.50000E+00 -1.10877E+00 -7.11183E-01  1.31725E+00
 -4.28571E+00  5.00000E+00 -5.00000E+00 -5.82466E-01 -4.46197E-01  7.33730E-01
 -4.28571E+00  5.00000E+00 -4.28571E+00 -6.67002E-01 -4.91503E-01  8.28533E-01
 -4.28571E+00  5.00000E+00 -3.57143E+00 -7.38344E-01 -5.33910E-01  9.11159E-01
 -4.28571E+00  5.00000E+00 -2.85714E+00 -8.06207E-01 -5.76509E-01  9.91127E-01
 -4.28571E+00  5.00000E+00 -2.14286E+00 -8.74902E-01 -6.21262E-01  1.07304E+00
 -4.28571E+00  5.00000E+00 -1.42857E+00 -9.45800E-01 -6.68906E-01  1.15844E+00
 -4.28571E+00  5.00000E+00 -7.14286E-01 -1.01909E+00 -7.19657E-01  1.24758E+00
 -4.28571E+00  5.00000E+00  2.50000E+00 -1.05629E+00 -7.45816E-01  1.29305E+00
 -3.57143E+00  5.00000E+00 -5.00000E+00 -5.39397E-01 -4.56568E-01  7.06685E-01
 -3.57143E+00  5.00000E+00 -4.28571E+00 -6.28374E-01 -5.09130E-01  8.08744E-01
 -3.57143E+00  5.00000E+00 -3.57143E+00 -6.99103E-01 -5.55632E-01  8.93012E-01
 -3.57143E+00  5.00000E+00 -2.85714E+00 -7.65209E-01 -6.01322E-01  9.73208E-01
 -3.57143E+00  5.00000E+00 -2.14286E+00 -8.31515E-01 -6.48815E-01  1.05469E+00
 -3.57143E+00  5.00000E+00 -1.42857E+00 -8.99627E-01 -6.99095E-01  1.13933E+00
 -3.57143E+00  5.00000E+00 -7.14286E-01 -9.69687E-01 -7.52423E-01  1.22737E+00
 -3.57143E+00  5.00000E+00  2.50000E+00 -1.00514E+00 -7.79857E-01  1.27220E+00
 -2.85714E+00  5.00000E+00 -5.00000E+00 -4.99875E-01 -4.67559E-01  6.84461E-01
 -2.85714E+00  5.00000E+00 -4.28571E+00 -5.89633E-01 -5.25732E-01  7.89976E-01
 -2.85714E+00  5.00000E+00 -3.57143E+00 -6.58818E-01 -5.75644E-01  8.74875E-01
 -2.85714E+00  5.00000E+00 -2.85714E+00 -7.22789E-01 -6.24088E-01  9.54939E-01
 -2.85714E+00  5.00000E+00 -2.14286E+00 -7.86522E-01 -6.74099E-01  1.03587E+00
 -2.85714E+00  5.00000E+00 -1.42857E+00 -8.51705E-01 -7.26835E-01  1.11968E+00
 -2.85714E+00  5.00000E+00 -7.14286E-01 -9.18446E-01 -7.82568E-01  1.20663E+00
 -2.85714E+00  5.00000E+00  2.50000E+00 -9.52135E-01 -8.11184E-01  1.25083E+00
 -2.14286E+00  5.00000E+00 -5.00000E+00 -4.60744E-01 -4.78350E-01  6.64157E-01
 -2.14286E+00  5.00000E+00 -4.28571E+00 -5.49428E-01 -5.41323E-01  7.71298E-01
 -2.14286E+00  5.00000E+00 -3.57143E+00 -6.16306E-01 -5.94230E-01  8.56120E-01
 -2.14286E+00  5.00000E+00 -2.85714E+00 -6.77592E-01 -6.45146E-01  9.35599E-01
 -2.14286E+00  5.00000E+00 -2.14286E+00 -7.38282E-01 -6.97446E-01  1.01562E+00
 -2.14286E+00  5.00000E+00 -1.42857E+00 -8.00072E-01 -7.52419E-01  1.09829E+00
 -2.14286E+00  5.00000E+00 -7.14286E-01 -8.63063E-01 -8.10325E-01  1.18385E+00
 -2.14286E+00  5.00000E+00  2.50000E+00 -8.94787E-01 -8.40001E-01  1.22729E+00
 -1.42857E+00  5.00000E+00 -5.00000E+00 -4.21127E-01 -4.88524E-01  6.44984E-01
 -1.42857E+00  5.00000E+00 -4.28571E+00 -5.07430E-01 -5.55683E-01  7.52508E-01
 -1.42857E+00  5.00000E+00 -3.57143E+00 -5.71292E-01 -6.11218E-01  8.36637E-01
 -1.42857E+00  5.00000E+00 -2.85714E+00 -6.29316E-01 -6.64315E-01  9.15070E-01
 -1.42857E+00  5.00000E+00 -2.14286E+00 -6.86417E-01 -7.18634E-01  9.93782E-01
 -1.42857E+00  5.00000E+00 -1.42857E+00 -7.44257E-01 -7.75565E-01  1.07490E+00
 -1.42857E+00  5.00000E+00 -7.14286E-01 -8.02925E-01 -8.35350E-01  1.15866E+00
 -1.42857E+00  5.00000E+00  2.50000E+00 -8.32393E-01 -8.65938E-01  1.20114E+00
 -7.14286E-01  5.00000E+00 -5.00000E+00 -3.80355E-01 -4.97737E-01  6.26428E-01
 -7.14286E-01  5.00000E+00 -4.28571E+00 -4.63231E-01 -5.68511E-01  7.33340E-01
 -7.14286E-01  5.00000E+00 -3.57143E+00 -5.23434E-01 -6.26300E-01  8.16232E-01
 -7.14286E-01  5.00000E+00 -2.85714E+00 -5.77689E-01 -6.81276E-01  8.93231E-01
 -7.14286E-01  5.00000E+00 -2.14286E+00 -6.30784E-01 -7.37352E-01  9.70349E-01
 -7.14286E-01  5.00000E+00 -1.42857E+00 -6.84341E-01 -7.96012E-01  1.04974E+00
 -7.14286E-01  5.00000E+00 -7.14286E-01 -7.38464E-01 -8.57493E-01  1.13165E+00
 -7.14286E-01  5.00000E+00  2.50000E+00 -7.65594E-01 -8.88914E-01  1.17316E+00
 -2.10195E-44  5.00000E+00 -5.00000E+00 -3.37998E-01 -5.05761E-01  6.08306E-01
 -2.10195E-44  5.00000E+00 -4.28571E+00 -4.16547E-01 -5.79570E-01  7.13731E-01
 -2.10195E-44  5.00000E+00 -3.57143E+00 -4.72486E-01 -6.39212E-01  7.94881E-01
 -2.10195E-44  5.00000E+00 -2.85714E+00 -5.22505E-01 -6.95735E-01  8.70091E-01
 -2.10195E-44  5.00000E+00 -2.14286E+00 -5.71249E-01 -7.53273E-01  9.45381E-01
 -2.10195E-44  5.00000E+00 -1.42857E+00 -6.20322E-01 -8.13402E-01  1.02295E+00
 -2.10195E-44  5.00000E+00 -7.14286E-01 -6.69851E-01 -8.76378E-01  1.10306E+00
 -2.10195E-44  5.00000E+00  2.50000E+00 -6.94656E-01 -9.08551E-01  1.14368E+00
  7.14286E-01  5.00000E+00 -5.00000E+00 -2.94019E-01 -5.12499E-01  5.90849E-01
  7.14286E-01  5.00000E+00 -4.28571E+00 -3.67428E-01 -5.88709E-01  6.93961E-01
  7.14286E-01  5.00000E+00 -3.57143E+00 -4.18506E-01 -6.49763E-01  7.72877E-01
  7.14286E-01  5.00000E+00 -2.85714E+00 -4.63762E-01 -7.07451E-01  8.45909E-01
  7.14286E-01  5.00000E+00 -2.14286E+00 -5.07637E-01 -7.66081E-01  9.19007E-01
  7.14286E-01  5.00000E+00 -1.42857E+00 -5.51671E-01 -8.27282E-01  9.94352E-01
  7.14286E-01  5.00000E+00 -7.14286E-01 -5.95987E-01 -8.91312E-01  1.07221E+00
  7.14286E-01  5.00000E+00  2.50000E+00 -6.18138E-01 -9.24004E-01  1.11170E+00
  1.42857E+00  5.00000E+00 -5.00000E+00 -2.48239E-01 -5.17782E-01  5.74214E-01
  1.42857E+00  5.00000E+00 -4.28571E+00 -3.15716E-01 -5.95649E-01  6.74147E-01
  1.42857E+00  5.00000E+00 -3.57143E+00 -3.61282E-01 -6.57588E-01  7.50298E-01
  1.42857E+00  5.00000E+00 -2.85714E+00 -4.01160E-01 -7.15995E-01  8.20718E-01
  1.42857E+00  5.00000E+00 -2.14286E+00 -4.39535E-01 -7.75309E-01  8.91232E-01
  1.42857E+00  5.00000E+00 -1.42857E+00 -4.77865E-01 -8.37207E-01  9.63987E-01
  1.42857E+00  5.00000E+00 -7.14286E-01 -5.16330E-01 -9.01975E-01  1.03931E+00
  1.42857E+00  5.00000E+00  2.50000E+00 -5.35531E-01 -9.35047E-01  1.07755E+00
  2.14286E+00  5.00000E+00 -5.00000E+00 -2.00210E-01 -5.21491E-01  5.58602E-01
  2.14286E+00  5.00000E+00 -4.28571E+00 -2.60910E-01 -6.00098E-01  6.54363E-01
  2.14286E+00  5.00000E+00 -3.57143E+00 -3.00203E-01 -6.62265E-01  7.27129E-01
  2.14286E+00  5.00000E+00 -2.85714E+00 -3.34027E-01 -7.20850E-01  7.94480E-01
  2.14286E+00  5.00000E+00 -2.14286E+00 -3.66282E-01 -7.80374E-01  8.62059E-01
  2.14286E+00  5.00000E+00 -1.42857E+00 -3.98336E-01 -8.42548E-01  9.31965E-01
  2.14286E+00  5.00000E+00 -7.14286E-01 -4.30445E-01 -9.07704E-01  1.00459E+00
  2.14286E+00  5.00000E+00  2.50000E+00 -4.46465E-01 -9.41001E-01  1.04154E+00
  2.85714E+00  5.00000E+00 -5.00000E+00 -1.49347E-01 -5.23601E-01  5.44484E-01
  2.85714E+00  5.00000E+00 -4.28571E+00 -2.02262E-01 -6.01720E-01  6.34805E-01
  2.85714E+00  5.00000E+00 -3.57143E+00 -2.34293E-01 -6.63266E-01  7.03431E-01
  2.85714E+00  5.00000E+00 -2.85714E+00 -2.61245E-01 -7.21345E-01  7.67195E-01
  2.85714E+00  5.00000E+00 -2.14286E+00 -2.86663E-01 -7.80474E-01  8.31454E-01
  2.85714E+00  5.00000E+00 -1.42857E+00 -3.11758E-01 -8.42341E-01  8.98182E-01
  2.85714E+00  5.00000E+00 -7.14286E-01 -3.36866E-01 -9.07327E-01  9.67844E-01
  2.85714E+00  5.00000E+00  2.50000E+00 -3.49404E-01 -9.40584E-01  1.00339E+00
  3.57143E+00  5.00000E+00 -5.00000E+00 -9.46328E-02 -5.24123E-01  5.32598E-01
  3.57143E+00  5.00000E+00 -4.28571E+00 -1.38267E-01 -5.99880E-01  6.15608E-01
  3.57143E+00  5.00000E+00 -3.57143E+00 -1.61484E-01 -6.59597E-01  6.79077E-01
  3.57143E+00  5.00000E+00 -2.85714E+00 -1.80388E-01 -7.16279E-01  7.38645E-01
  3.57143E+00  5.00000E+00 -2.14286E+00 -1.97998E-01 -7.74274E-01  7.99190E-01
  3.57143E+00  5.00000E+00 -1.42857E+00 -2.15253E-01 -8.35149E-01  8.62443E-01
  3.57143E+00  5.00000E+00 -7.14286E-01 -2.32434E-01 -8.99285E-01  9.28837E-01
  3.57143E+00  5.00000E+00  2.50000E+00 -2.40997E-01 -9.32158E-01  9.62808E-01
  4.28571E+00  5.00000E+00 -5.00000E+00 -3.19915E-02 -5.23231E-01  5.24209E-01
  4.28571E+00  5.00000E+00 -4.28571E+00 -6.32639E-02 -5.92736E-01  5.96102E-01
  4.28571E+00  5.00000E+00 -3.57143E+00 -7.45713E-02 -6.48517E-01  6.52790E-01
  4.28571E+00  5.00000E+00 -2.85714E+00 -8.33060E-02 -7.02511E-01  7.07433E-01
  4.28571E+00  5.00000E+00 -2.14286E+00 -9.13269E-02 -7.58367E-01  7.63846E-01
  4.28571E+00  5.00000E+00 -1.42857E+00 -9.91354E-02 -8.17346E-01  8.23336E-01
  4.28571E+00  5.00000E+00 -7.14286E-01 -1.06767E-01 -8.79750E-01  8.86205E-01
  4.28571E+00  5.00000E+00  2.50000E+00 -1.10507E-01 -9.11795E-01  9.18467E-01
  5.00000E+00  5.00000E+00 -5.00000E+00  3.47607E-02 -5.23238E-01  5.24391E-01
  5.00000E+00  5.00000E+00 -4.28571E+00  4.52974E-02 -5.67557E-01  5.69362E-01
  5.00000E+00  5.00000E+00 -3.57143E+00  5.40317E-02 -6.16819E-01  6.19181E-01
  5.00000E+00  5.00000E+00 -2.85714E+00  6.13202E-02 -6.66059E-01  6.68875E-01
  5.00000E+00  5.00000E+00 -2.14286E+00  6.80435E-02 -7.17794E-01  7.21012E-01
  5.00000E+00  5.00000E+00 -1.42857E+00  7.44653E-02 -7.72929E-01  7.76508E-01
  5.00000E+00  5.00000E+00 -7.14286E-01  8.04726E-02 -8.31771E-01  8.35654E-01
  5.00000E+00  5.00000E+00  2.50000E+00  8.33366E-02 -8.62126E-01  8.66144E-01
  5.00000E+00  4.28571E+00 -5.00000E+00  8.64186E-02 -4.88852E-01  4.96431E-01
  5.00000E+00  4.28571E+00 -4.28571E+00  1.45269E-01 -5.31688E-01  5.51177E-01
  5.00000E+00  4.28571E+00 -3.57143E+00  1.74084E-01 -5.75650E-01  6.01397E-01
  5.00000E+00  4.28571E+00 -2.85714E+00  1.97120E-01 -6.20320E-01  6.50887E-01
  5.00000E+00  4.28571E+00 -2.14286E+00  2.18135E-01 -6.67671E-01  7.02401E-01
  5.00000E+00  4.28571E+00 -1.42857E+00  2.38219E-01 -7.18491E-01  7.56953E-01
  5.00000E+00  4.28571E+00 -7.14286E-01  2.57184E-01 -7.73128E-01  8.14782E-01
  5.00000E+00  4.28571E+00  2.50000E+00  2.66281E-01 -8.01428E-01  8.44508E-01
  5.00000E+00  3.57143E+00 -5.00000E+00  1.30290E-01 -4.60520E-01  4.78596E-01
  5.00000E+00  3.57143E+00 -4.28571E+00  2.02049E-01 -5.02357E-01  5.41466E-01
  5.00000E+00  3.57143E+00 -3.57143E+00  2.42383E-01 -5.43522E-01  5.95118E-01
  5.00000E+00  3.57143E+00 -2.85714E+00  2.74795E-01 -5.85288E-01  6.46587E-01
  5.00000E+00  3.57143E+00 -2.14286E+00  3.04331E-01 -6.29602E-01  6.99297E-01
  5.00000E+00  3.57143E+00 -1.42857E+00  3.32592E-01 -6.77273E-01  7.54531E-01
  5.00000E+00  3.57143E+00 -7.14286E-01  3.59621E-01 -7.28594E-01  8.12513E-01
  5.00000E+00  3.57143E+00  2.50000E+00  3.72738E-01 -7.55189E-01  8.42166E-01
  5.00000E+00  2.85714E+00 -5.00000E+00  1.66173E-01 -4.37201E-01  4.67716E-01
  5.00000E+00  2.85714E+00 -4.28571E+00  2.46109E-01 -4.76663E-01  5.36449E-01
  5.00000E+00  2.85714E+00 -3.57143E+00  2.94124E-01 -5.15154E-01  5.93205E-01
  5.00000E+00  2.85714E+00 -2.85714E+00  3.33353E-01 -5.54273E-01  6.46794E-01
  5.00000E+00  2.85714E+00 -2.14286E+00  3.69304E-01 -5.95859E-01  7.01023E-01
  5.00000E+00  2.85714E+00 -1.42857E+00  4.03845E-01 -6.40686E-01  7.57344E-01
  5.00000E+00  2.85714E+00 -7.14286E-01  4.37056E-01 -6.89026E-01  8.15950E-01
  5.00000E+00  2.85714E+00  2.50000E+00  4.53222E-01 -7.14100E-01  8.45783E-01
  5.00000E+00  2.14286E+00 -5.00000E+00  1.97846E-01 -4.16337E-01  4.60955E-01
  5.00000E+00  2.14286E+00 -4.28571E+00  2.83715E-01 -4.52853E-01  5.34387E-01
  5.00000E+00  2.14286E+00 -3.57143E+00  3.37397E-01 -4.88706E-01  5.93860E-01
  5.00000E+00  2.14286E+00 -2.85714E+00  3.81914E-01 -5.25284E-01  6.49447E-01
  5.00000E+00  2.14286E+00 -2.14286E+00  4.23005E-01 -5.64285E-01  7.05231E-01
  5.00000E+00  2.14286E+00 -1.42857E+00  4.62654E-01 -6.06436E-01  7.62767E-01
  5.00000E+00  2.14286E+00 -7.14286E-01  5.00841E-01 -6.52021E-01  8.22175E-01
  5.00000E+00  2.14286E+00  2.50000E+00  5.19432E-01 -6.75706E-01  8.52284E-01
  5.00000E+00  1.42857E+00 -5.00000E+00  2.26371E-01 -3.97289E-01  4.57255E-01
  5.00000E+00  1.42857E+00 -4.28571E+00  3.16733E-01 -4.30544E-01  5.34498E-01
  5.00000E+00  1.42857E+00 -3.57143E+00  3.74770E-01 -4.63777E-01  5.96273E-01
  5.00000E+00  1.42857E+00 -2.85714E+00  4.23472E-01 -4.97899E-01  6.53630E-01
  5.00000E+00  1.42857E+00 -2.14286E+00  4.68720E-01 -5.34440E-01  7.10862E-01
  5.00000E+00  1.42857E+00 -1.42857E+00  5.12527E-01 -5.74084E-01  7.69581E-01
  5.00000E+00  1.42857E+00 -7.14286E-01  5.54780E-01 -6.17124E-01  8.29833E-01
  5.00000E+00  1.42857E+00  2.50000E+00  5.75366E-01 -6.39534E-01  8.60262E-01
  5.00000E+00  7.14286E-01 -5.00000E+00  2.52309E-01 -3.79821E-01  4.55987E-01
  5.00000E+00  7.14286E-01 -4.28571E+00  3.46050E-01 -4.09651E-01  5.36250E-01
  5.00000E+00  7.14286E-01 -3.57143E+00  4.07448E-01 -4.40309E-01  5.99905E-01
  5.00000E+00  7.14286E-01 -2.85714E+00  4.59462E-01 -4.72070E-01  6.58753E-01
  5.00000E+00  7.14286E-01 -2.14286E+00  5.08080E-01 -5.06271E-01  7.17256E-01
  5.00000E+00  7.14286E-01 -1.42857E+00  5.55346E-01 -5.43527E-01  7.77065E-01
  5.00000E+00  7.14286E-01 -7.14286E-01  6.01087E-01 -5.84138E-01  8.38166E-01
  5.00000E+00  7.14286E-01  2.50000E+00  6.23411E-01 -6.05330E-01  8.68945E-01
  5.00000E+00  2.10195E-44 -5.00000E+00  2.64682E-01 -3.71469E-01  4.56121E-01
  5.00000E+00  2.10195E-44 -4.28571E+00  3.59859E-01 -3.99560E-01  5.37724E-01
  5.00000E+00  2.10195E-44 -3.57143E+00  4.22713E-01 -4.28949E-01  6.02232E-01
  5.00000E+00  2.10195E-44 -2.85714E+00  4.76175E-01 -4.59560E-01  6.61769E-01
  5.00000E+00  2.10195E-44 -2.14286E+00  5.26293E-01 -4.92622E-01  7.20875E-01
  5.00000E+00  2.10195E-44 -1.42857E+00  5.75147E-01 -5.28704E-01  7.81231E-01
  5.00000E+00  2.10195E-44 -7.14286E-01  6.22590E-01 -5.68089E-01  8.42819E-01
  5.00000E+00  2.10195E-44  2.50000E+00  6.45796E-01 -5.88655E-01  8.73824E-01
  4.28571E+00  1.82169E-44 -5.00000E+00  1.70721E-01 -3.55841E-01  3.94675E-01
  3.57143E+00  1.54143E-44 -5.00000E+00  1.11128E-01 -3.53842E-01  3.70882E-01
  2.85714E+00  1.26117E-44 -5.00000E+00  6.24523E-02 -3.54984E-01  3.60435E-01
  2.14286E+00  8.40779E-45 -5.00000E+00  1.87155E-02 -3.57489E-01  3.57978E-01
  1.42857E+00  5.60519E-45 -5.00000E+00 -2.22472E-02 -3.60684E-01  3.61369E-01
  7.14286E-01  2.80260E-45 -5.00000E+00 -6.19089E-02 -3.64262E-01  3.69485E-01
  0.00000E+00  0.00000E+00 -5.00000E+00 -1.01318E-01 -3.68135E-01  3.81823E-01
  4.28571E+00  7.14286E-01 -5.00000E+00  1.59157E-01 -3.62622E-01  3.96012E-01
  3.57143E+00  7.14286E-01 -5.00000E+00  9.96799E-02 -3.59724E-01  3.73279E-01
  2.85714E+00  7.14286E-01 -5.00000E+00  5.09805E-02 -3.60145E-01  3.63736E-01
  2.14286E+00  7.14286E-01 -5.00000E+00  7.16536E-03 -3.61993E-01  3.62064E-01
  1.42857E+00  7.14286E-01 -5.00000E+00 -3.38795E-02 -3.64548E-01  3.66119E-01
  7.14286E-01  7.14286E-01 -5.00000E+00 -7.35890E-02 -3.67473E-01  3.74769E-01
 -2.80260E-45  7.14286E-01 -5.00000E+00 -1.13003E-01 -3.70668E-01  3.87510E-01
  4.28571E+00  1.42857E+00 -5.00000E+00  1.35198E-01 -3.77084E-01  4.00588E-01
  3.57143E+00  1.42857E+00 -5.00000E+00  7.60964E-02 -3.72524E-01  3.80216E-01
  2.85714E+00  1.42857E+00 -5.00000E+00  2.74322E-02 -3.71610E-01  3.72621E-01
  2.14286E+00  1.42857E+00 -5.00000E+00 -1.64882E-02 -3.72215E-01  3.72580E-01
  1.42857E+00  1.42857E+00 -5.00000E+00 -5.76716E-02 -3.73538E-01  3.77964E-01
  7.14286E-01  1.42857E+00 -5.00000E+00 -9.74635E-02 -3.75185E-01  3.87637E-01
 -5.60519E-45  1.42857E+00 -5.00000E+00 -1.36863E-01 -3.77028E-01  4.01100E-01
  4.28571E+00  2.14286E+00 -5.00000E+00  1.09389E-01 -3.93494E-01  4.08416E-01
  3.57143E+00  2.14286E+00 -5.00000E+00  5.08894E-02 -3.87621E-01  3.90947E-01
  2.85714E+00  2.14286E+00 -5.00000E+00  2.35690E-03 -3.85632E-01  3.85639E-01
  2.14286E+00  2.14286E+00 -5.00000E+00 -4.16366E-02 -3.85169E-01  3.87413E-01
  1.42857E+00  2.14286E+00 -5.00000E+00 -8.29688E-02 -3.85359E-01  3.94190E-01
  7.14286E-01  2.14286E+00 -5.00000E+00 -1.22867E-01 -3.85770E-01  4.04864E-01
 -8.40779E-45  2.14286E+00 -5.00000E+00 -1.62249E-01 -3.86260E-01  4.18953E-01
  4.28571E+00  2.85714E+00 -5.00000E+00  8.12629E-02 -4.12351E-01  4.20282E-01
  3.57143E+00  2.85714E+00 -5.00000E+00  2.34774E-02 -4.05717E-01  4.06396E-01
  2.85714E+00  2.85714E+00 -5.00000E+00 -2.49667E-02 -4.03025E-01  4.03797E-01
  2.14286E+00  2.85714E+00 -5.00000E+00 -6.91441E-02 -4.01719E-01  4.07626E-01
  1.42857E+00  2.85714E+00 -5.00000E+00 -1.10761E-01 -4.00886E-01  4.15906E-01
  7.14286E-01  2.85714E+00 -5.00000E+00 -1.50895E-01 -4.00086E-01  4.27596E-01
 -1.26117E-44  2.85714E+00 -5.00000E+00 -1.90353E-01 -3.99186E-01  4.42249E-01
  4.28571E+00  3.57143E+00 -5.00000E+00  5.00248E-02 -4.34832E-01  4.37700E-01
  3.57143E+00  3.57143E+00 -5.00000E+00 -7.11198E-03 -4.28375E-01  4.28434E-01
  2.85714E+00  3.57143E+00 -5.00000E+00 -5.57027E-02 -4.25503E-01  4.29134E-01
  2.14286E+00  3.57143E+00 -5.00000E+00 -1.00371E-01 -4.23623E-01  4.35351E-01
  1.42857E+00  3.57143E+00 -5.00000E+00 -1.42586E-01 -4.21870E-01  4.45315E-01
  7.14286E-01  3.57143E+00 -5.00000E+00 -1.83241E-01 -4.19847E-01  4.58093E-01
 -1.54143E-44  3.57143E+00 -5.00000E+00 -2.23021E-01 -4.17455E-01  4.73294E-01
  4.28571E+00  4.28571E+00 -5.00000E+00  1.30520E-02 -4.64966E-01  4.65149E-01
  3.57143E+00  4.28571E+00 -5.00000E+00 -4.38213E-02 -4.60450E-01  4.62530E-01
  2.85714E+00  4.28571E+00 -5.00000E+00 -9.32590E-02 -4.58125E-01  4.67520E-01
  2.14286E+00  4.28571E+00 -5.00000E+00 -1.39201E-01 -4.55943E-01  4.76719E-01
  1.42857E+00  4.28571E+00 -5.00000E+00 -1.82758E-01 -4.53290E-01  4.88746E-01
  7.14286E-01  4.28571E+00 -5.00000E+00 -2.24603E-01 -4.49900E-01  5.02848E-01
 -1.82169E-44  4.28571E+00 -5.00000E+00 -2.65279E-01 -4.45743E-01  5.18710E-01
 -7.14286E-01 -2.80260E-45 -5.00000E+00 -1.41015E-01 -3.72319E-01  3.98129E-01
 -1.42857E+00 -5.60519E-45 -5.00000E+00 -1.81570E-01 -3.76907E-01  4.18362E-01
 -2.14286E+00 -8.40779E-45 -5.00000E+00 -2.24200E-01 -3.82281E-01  4.43175E-01
 -2.85714E+00 -1.26117E-44 -5.00000E+00 -2.70719E-01 -3.89138E-01  4.74043E-01
 -3.57143E+00 -1.54143E-44 -5.00000E+00 -3.23942E-01 -3.98655E-01  5.13677E-01
 -4.28571E+00 -1.82169E-44 -5.00000E+00 -3.91654E-01 -4.13983E-01  5.69890E-01
 -7.14286E-01  7.14286E-01 -5.00000E+00 -1.52649E-01 -3.74151E-01  4.04092E-01
 -1.42857E+00  7.14286E-01 -5.00000E+00 -1.93089E-01 -3.78014E-01  4.24473E-01
 -2.14286E+00  7.14286E-01 -5.00000E+00 -2.35549E-01 -3.82627E-01  4.49318E-01
 -2.85714E+00  7.14286E-01 -5.00000E+00 -2.81840E-01 -3.88667E-01  4.80099E-01
 -3.57143E+00  7.14286E-01 -5.00000E+00 -3.34794E-01 -3.97277E-01  5.19535E-01
 -4.28571E+00  7.14286E-01 -5.00000E+00 -4.02231E-01 -4.11523E-01  5.75449E-01
 -7.14286E-01  1.42857E+00 -5.00000E+00 -1.76376E-01 -3.79091E-01  4.18113E-01
 -1.42857E+00  1.42857E+00 -5.00000E+00 -2.16535E-01 -3.81459E-01  4.38633E-01
 -2.14286E+00  1.42857E+00 -5.00000E+00 -2.58558E-01 -3.84477E-01  4.63330E-01
 -2.85714E+00  1.42857E+00 -5.00000E+00 -3.04243E-01 -3.88778E-01  4.93672E-01
 -3.57143E+00  1.42857E+00 -5.00000E+00 -3.56438E-01 -3.95452E-01  5.32382E-01
 -4.28571E+00  1.42857E+00 -5.00000E+00 -4.23015E-01 -4.07388E-01  5.87288E-01
 -7.14286E-01  2.14286E+00 -5.00000E+00 -2.01597E-01 -3.86854E-01  4.36231E-01
 -1.42857E+00  2.14286E+00 -5.00000E+00 -2.41400E-01 -3.87618E-01  4.56642E-01
 -2.14286E+00  2.14286E+00 -5.00000E+00 -2.82807E-01 -3.88867E-01  4.80830E-01
 -2.85714E+00  2.14286E+00 -5.00000E+00 -3.27575E-01 -3.91205E-01  5.10242E-01
 -3.57143E+00  2.14286E+00 -5.00000E+00 -3.78524E-01 -3.95670E-01  5.47572E-01
 -4.28571E+00  2.14286E+00 -5.00000E+00 -4.43524E-01 -4.04972E-01  6.00596E-01
 -7.14286E-01  2.85714E+00 -5.00000E+00 -2.29581E-01 -3.98214E-01  4.59654E-01
 -1.42857E+00  2.85714E+00 -5.00000E+00 -2.68989E-01 -3.97211E-01  4.79720E-01
 -2.14286E+00  2.85714E+00 -5.00000E+00 -3.09622E-01 -3.96473E-01  5.03047E-01
 -2.85714E+00  2.85714E+00 -5.00000E+00 -3.53135E-01 -3.96572E-01  5.31012E-01
 -3.57143E+00  2.85714E+00 -5.00000E+00 -4.02245E-01 -3.98477E-01  5.66202E-01
 -4.28571E+00  2.85714E+00 -5.00000E+00 -4.64687E-01 -4.04713E-01  6.16220E-01
 -7.14286E-01  3.57143E+00 -5.00000E+00 -2.62297E-01 -4.14738E-01  4.90721E-01
 -1.42857E+00  3.57143E+00 -5.00000E+00 -3.01372E-01 -4.11730E-01  5.10242E-01
 -2.14286E+00  3.57143E+00 -5.00000E+00 -3.41137E-01 -4.08706E-01  5.32367E-01
 -2.85714E+00  3.57143E+00 -5.00000E+00 -3.83051E-01 -4.06184E-01  5.58313E-01
 -3.57143E+00  3.57143E+00 -5.00000E+00 -4.29561E-01 -4.05031E-01  5.90400E-01
 -4.28571E+00  3.57143E+00 -5.00000E+00 -4.87966E-01 -4.07527E-01  6.35758E-01
 -7.14286E-01  4.28571E+00 -5.00000E+00 -3.05059E-01 -4.40904E-01  5.36150E-01
 -1.42857E+00  4.28571E+00 -5.00000E+00 -3.44115E-01 -4.35432E-01  5.54992E-01
 -2.14286E+00  4.28571E+00 -5.00000E+00 -3.83121E-01 -4.29572E-01  5.75599E-01
 -2.85714E+00  4.28571E+00 -5.00000E+00 -4.23194E-01 -4.23760E-01  5.98887E-01
 -3.57143E+00  4.28571E+00 -5.00000E+00 -4.66146E-01 -4.18686E-01  6.26570E-01
 -4.28571E+00  4.28571E+00 -5.00000E+00 -5.17839E-01 -4.16129E-01  6.64320E-01
 -5.00000E+00  2.10195E-44 -5.00000E+00 -5.06328E-01 -4.51530E-01  6.78416E-01
 -5.00000E+00  2.10195E-44 -4.28571E+00 -6.29380E-01 -5.02729E-01  8.05516E-01
 -5.00000E+00  2.10195E-44 -3.57143E+00 -7.16535E-01 -5.48145E-01  9.02156E-01
 -5.00000E+00  2.10195E-44 -2.85714E+00 -7.94044E-01 -5.92727E-01  9.90874E-01
 -5.00000E+00  2.10195E-44 -2.14286E+00 -8.69201E-01 -6.39105E-01  1.07887E+00
 -5.00000E+00  2.10195E-44 -1.42857E+00 -9.44505E-01 -6.88333E-01  1.16871E+00
 -5.00000E+00  2.10195E-44 -7.14286E-01 -1.02005E+00 -7.40669E-01  1.26059E+00
 -5.00000E+00  2.10195E-44  2.50000E+00 -1.05775E+00 -7.67627E-01  1.30694E+00
 -5.00000E+00 -7.14286E-01 -5.00000E+00 -5.16896E-01 -4.47477E-01  6.83680E-01
 -5.00000E+00 -7.14286E-01 -4.28571E+00 -6.40397E-01 -4.97169E-01  8.10732E-01
 -5.00000E+00 -7.14286E-01 -3.57143E+00 -7.28236E-01 -5.41668E-01  9.07597E-01
 -5.00000E+00 -7.14286E-01 -2.85714E+00 -8.06500E-01 -5.85490E-01  9.96614E-01
 -5.00000E+00 -7.14286E-01 -2.14286E+00 -8.82471E-01 -6.31160E-01  1.08495E+00
 -5.00000E+00 -7.14286E-01 -1.42857E+00 -9.58630E-01 -6.79694E-01  1.17514E+00
 -5.00000E+00 -7.14286E-01 -7.14286E-01 -1.03506E+00 -7.31352E-01  1.26737E+00
 -5.00000E+00 -7.14286E-01  2.50000E+00 -1.07320E+00 -7.57977E-01  1.31388E+00
 -5.00000E+00 -1.42857E+00 -5.00000E+00 -5.37120E-01 -4.40009E-01  6.94338E-01
 -5.00000E+00 -1.42857E+00 -4.28571E+00 -6.60914E-01 -4.86614E-01  8.20732E-01
 -5.00000E+00 -1.42857E+00 -3.57143E+00 -7.49689E-01 -5.29287E-01  9.17703E-01
 -5.00000E+00 -1.42857E+00 -2.85714E+00 -8.29124E-01 -5.71620E-01  1.00707E+00
 -5.00000E+00 -1.42857E+00 -2.14286E+00 -9.06481E-01 -6.15908E-01  1.09592E+00
 -5.00000E+00 -1.42857E+00 -1.42857E+00 -9.84228E-01 -6.63082E-01  1.18675E+00
 -5.00000E+00 -1.42857E+00 -7.14286E-01 -1.06246E+00 -7.13391E-01  1.27975E+00
 -5.00000E+00 -1.42857E+00  2.50000E+00 -1.10157E+00 -7.39348E-01  1.32669E+00
 -5.00000E+00 -2.14286E+00 -5.00000E+00 -5.55840E-01 -4.33945E-01  7.05172E-01
 -5.00000E+00 -2.14286E+00 -4.28571E+00 -6.78612E-01 -4.77333E-01  8.29675E-01
 -5.00000E+00 -2.14286E+00 -3.57143E+00 -7.67398E-01 -5.18228E-01  9.25991E-01
 -5.00000E+00 -2.14286E+00 -2.85714E+00 -8.47246E-01 -5.59163E-01  1.01513E+00
 -5.00000E+00 -2.14286E+00 -2.14286E+00 -9.25348E-01 -6.02176E-01  1.10403E+00
 -5.00000E+00 -2.14286E+00 -1.42857E+00 -1.00416E+00 -6.48097E-01  1.19514E+00
 -5.00000E+00 -2.14286E+00 -7.14286E-01 -1.08383E+00 -6.97163E-01  1.28869E+00
 -5.00000E+00 -2.14286E+00  2.50000E+00 -1.12375E+00 -7.22503E-01  1.33598E+00
 -5.00000E+00 -2.85714E+00 -5.00000E+00 -5.73560E-01 -4.29642E-01  7.16633E-01
 -5.00000E+00 -2.85714E+00 -4.28571E+00 -6.93642E-01 -4.69701E-01  8.37710E-01
 -5.00000E+00 -2.85714E+00 -3.57143E+00 -7.81345E-01 -5.08943E-01  9.32482E-01
 -5.00000E+00 -2.85714E+00 -2.85714E+00 -8.60712E-01 -5.48645E-01  1.02070E+00
 -5.00000E+00 -2.85714E+00 -2.14286E+00 -9.38745E-01 -5.90569E-01  1.10906E+00
 -5.00000E+00 -2.85714E+00 -1.42857E+00 -1.01782E+00 -6.35440E-01  1.19989E+00
 -5.00000E+00 -2.85714E+00 -7.14286E-01 -1.09811E+00 -6.83485E-01  1.29345E+00
 -5.00000E+00 -2.85714E+00  2.50000E+00 -1.13847E+00 -7.08321E-01  1.34083E+00
 -5.00000E+00 -3.57143E+00 -5.00000E+00 -5.90779E-01 -4.27766E-01  7.29386E-01
 -5.00000E+00 -3.57143E+00 -4.28571E+00 -7.05689E-01 -4.64360E-01  8.44764E-01
 -5.00000E+00 -3.57143E+00 -3.57143E+00 -7.90891E-01 -5.02197E-01  9.36862E-01
 -5.00000E+00 -3.57143E+00 -2.85714E+00 -8.68749E-01 -5.40936E-01  1.02339E+00
 -5.00000E+00 -3.57143E+00 -2.14286E+00 -9.45862E-01 -5.82053E-01  1.11060E+00
 -5.00000E+00 -3.57143E+00 -1.42857E+00 -1.02440E+00 -6.26173E-01  1.20062E+00
 -5.00000E+00 -3.57143E+00 -7.14286E-01 -1.10455E+00 -6.73520E-01  1.29370E+00
 -5.00000E+00 -3.57143E+00  2.50000E+00 -1.14495E+00 -6.98023E-01  1.34095E+00
 -5.00000E+00 -4.28571E+00 -5.00000E+00 -6.09000E-01 -4.30253E-01  7.45654E-01
 -5.00000E+00 -4.28571E+00 -4.28571E+00 -7.13558E-01 -4.62977E-01  8.50596E-01