 VARIABLES="w" "CA" "CM" "CMinf"
Zone t="Force sur  1- Mvt de  1 11",I= 150,F=POINT
   0.3000000E+01   0.1100178E+06   0.3374744E+06   0.0000000E+00
   0.2980000E+01   0.1136214E+06   0.3359398E+06   0.0000000E+00
   0.2960000E+01   0.1169384E+06   0.3345701E+06   0.0000000E+00
   0.2940000E+01   0.1199851E+06   0.3334638E+06   0.0000000E+00
   0.2920000E+01   0.1230698E+06   0.3323335E+06   0.0000000E+00
   0.2900000E+01   0.1262672E+06   0.3310645E+06   0.0000000E+00
   0.2880000E+01   0.1291555E+06   0.3299301E+06   0.0000000E+00
   0.2860000E+01   0.1315314E+06   0.3287953E+06   0.0000000E+00
   0.2840000E+01   0.1339759E+06   0.3275569E+06   0.0000000E+00
   0.2820000E+01   0.1366932E+06   0.3262357E+06   0.0000000E+00
   0.2800000E+01   0.1397119E+06   0.3248064E+06   0.0000000E+00
   0.2780000E+01   0.1427812E+06   0.3234325E+06   0.0000000E+00
   0.2760000E+01   0.1461391E+06   0.3219252E+06   0.0000000E+00
   0.2740000E+01   0.1497967E+06   0.3202897E+06   0.0000000E+00
   0.2720000E+01   0.1536775E+06   0.3185838E+06   0.0000000E+00
   0.2700000E+01   0.1570412E+06   0.3171434E+06   0.0000000E+00
   0.2680000E+01   0.1602885E+06   0.3157893E+06   0.0000000E+00
   0.2660000E+01   0.1636992E+06   0.3143574E+06   0.0000000E+00
   0.2640000E+01   0.1673576E+06   0.3128041E+06   0.0000000E+00
   0.2620000E+01   0.1712238E+06   0.3110192E+06   0.0000000E+00
   0.2600000E+01   0.1755786E+06   0.3090247E+06   0.0000000E+00
   0.2580000E+01   0.1803352E+06   0.3069147E+06   0.0000000E+00
   0.2560000E+01   0.1849047E+06   0.3048131E+06   0.0000000E+00
   0.2540000E+01   0.1889585E+06   0.3030464E+06   0.0000000E+00
   0.2520000E+01   0.1933997E+06   0.3011537E+06   0.0000000E+00
   0.2500000E+01   0.1978379E+06   0.2992471E+06   0.0000000E+00
   0.2480000E+01   0.2019561E+06   0.2972525E+06   0.0000000E+00
   0.2460000E+01   0.2063395E+06   0.2950663E+06   0.0000000E+00
   0.2440000E+01   0.2113103E+06   0.2928182E+06   0.0000000E+00
   0.2420000E+01   0.2167300E+06   0.2905146E+06   0.0000000E+00
   0.2400000E+01   0.2224062E+06   0.2882249E+06   0.0000000E+00
   0.2380000E+01   0.2287158E+06   0.2857696E+06   0.0000000E+00
   0.2360000E+01   0.2356499E+06   0.2832098E+06   0.0000000E+00
   0.2340000E+01   0.2422987E+06   0.2807886E+06   0.0000000E+00
   0.2320000E+01   0.2486382E+06   0.2785253E+06   0.0000000E+00
   0.2300000E+01   0.2555455E+06   0.2762843E+06   0.0000000E+00
   0.2280000E+01   0.2631151E+06   0.2739306E+06   0.0000000E+00
   0.2260000E+01   0.2714486E+06   0.2714241E+06   0.0000000E+00
   0.2240000E+01   0.2805895E+06   0.2687864E+06   0.0000000E+00
   0.2220000E+01   0.2901678E+06   0.2661105E+06   0.0000000E+00
   0.2200000E+01   0.2990302E+06   0.2637916E+06   0.0000000E+00
   0.2180000E+01   0.3084129E+06   0.2615239E+06   0.0000000E+00
   0.2160000E+01   0.3179650E+06   0.2593092E+06   0.0000000E+00
   0.2140000E+01   0.3276059E+06   0.2570763E+06   0.0000000E+00
   0.2120000E+01   0.3381099E+06   0.2548982E+06   0.0000000E+00
   0.2100000E+01   0.3494145E+06   0.2528266E+06   0.0000000E+00
   0.2080000E+01   0.3608136E+06   0.2509688E+06   0.0000000E+00
   0.2060000E+01   0.3733081E+06   0.2491793E+06   0.0000000E+00
   0.2040000E+01   0.3867207E+06   0.2475209E+06   0.0000000E+00
   0.2020000E+01   0.3994293E+06   0.2462400E+06   0.0000000E+00
   0.2000000E+01   0.4125270E+06   0.2452376E+06   0.0000000E+00
   0.1980000E+01   0.4261378E+06   0.2445239E+06   0.0000000E+00
   0.1960000E+01   0.4407172E+06   0.2440693E+06   0.0000000E+00
   0.1940000E+01   0.4564032E+06   0.2438981E+06   0.0000000E+00
   0.1920000E+01   0.4725546E+06   0.2441228E+06   0.0000000E+00
   0.1900000E+01   0.4875864E+06   0.2449317E+06   0.0000000E+00
   0.1880000E+01   0.5032536E+06   0.2462389E+06   0.0000000E+00
   0.1860000E+01   0.5185129E+06   0.2481120E+06   0.0000000E+00
   0.1840000E+01   0.5340761E+06   0.2505814E+06   0.0000000E+00
   0.1820000E+01   0.5501097E+06   0.2536970E+06   0.0000000E+00
   0.1800000E+01   0.5658264E+06   0.2574752E+06   0.0000000E+00
   0.1780000E+01   0.5822775E+06   0.2619679E+06   0.0000000E+00
   0.1760000E+01   0.5989322E+06   0.2672228E+06   0.0000000E+00
   0.1740000E+01   0.6137286E+06   0.2732802E+06   0.0000000E+00
   0.1720000E+01   0.6286996E+06   0.2801586E+06   0.0000000E+00
   0.1700000E+01   0.6436082E+06   0.2878908E+06   0.0000000E+00
   0.1680000E+01   0.6587016E+06   0.2965298E+06   0.0000000E+00
   0.1660000E+01   0.6731520E+06   0.3061228E+06   0.0000000E+00
   0.1640000E+01   0.6857008E+06   0.3166413E+06   0.0000000E+00
   0.1620000E+01   0.6976752E+06   0.3282120E+06   0.0000000E+00
   0.1600000E+01   0.7082761E+06   0.3406409E+06   0.0000000E+00
   0.1580000E+01   0.7186699E+06   0.3541009E+06   0.0000000E+00
   0.1560000E+01   0.7280307E+06   0.3687435E+06   0.0000000E+00
   0.1540000E+01   0.7368014E+06   0.3847335E+06   0.0000000E+00
   0.1520000E+01   0.7440951E+06   0.4019520E+06   0.0000000E+00
   0.1500000E+01   0.7487906E+06   0.4201655E+06   0.0000000E+00
   0.1480000E+01   0.7522362E+06   0.4395992E+06   0.0000000E+00
   0.1460000E+01   0.7545589E+06   0.4603797E+06   0.0000000E+00
   0.1440000E+01   0.7552689E+06   0.4825075E+06   0.0000000E+00
   0.1420000E+01   0.7525499E+06   0.5054060E+06   0.0000000E+00
   0.1400000E+01   0.7474089E+06   0.5293540E+06   0.0000000E+00
   0.1380000E+01   0.7390819E+06   0.5538898E+06   0.0000000E+00
   0.1360000E+01   0.7288091E+06   0.5794221E+06   0.0000000E+00
   0.1340000E+01   0.7159308E+06   0.6055492E+06   0.0000000E+00
   0.1320000E+01   0.7008394E+06   0.6323606E+06   0.0000000E+00
   0.1300000E+01   0.6814851E+06   0.6584796E+06   0.0000000E+00
   0.1280000E+01   0.6598878E+06   0.6845556E+06   0.0000000E+00
   0.1260000E+01   0.6363163E+06   0.7105518E+06   0.0000000E+00
   0.1240000E+01   0.6101434E+06   0.7355489E+06   0.0000000E+00
   0.1220000E+01   0.5813989E+06   0.7590279E+06   0.0000000E+00
   0.1200000E+01   0.5502549E+06   0.7803380E+06   0.0000000E+00
   0.1180000E+01   0.5180663E+06   0.8001206E+06   0.0000000E+00
   0.1160000E+01   0.4848847E+06   0.8179282E+06   0.0000000E+00
   0.1140000E+01   0.4513788E+06   0.8339789E+06   0.0000000E+00
   0.1120000E+01   0.4172940E+06   0.8469586E+06   0.0000000E+00
   0.1100000E+01   0.3838929E+06   0.8582079E+06   0.0000000E+00
   0.1080000E+01   0.3514641E+06   0.8677688E+06   0.0000000E+00
   0.1060000E+01   0.3195318E+06   0.8741186E+06   0.0000000E+00
   0.1040000E+01   0.2887429E+06   0.8776350E+06   0.0000000E+00
   0.1020000E+01   0.2596080E+06   0.8793671E+06   0.0000000E+00
   0.1000000E+01   0.2323380E+06   0.8796739E+06   0.0000000E+00
   0.9800000E+00   0.2068515E+06   0.8782723E+06   0.0000000E+00
   0.9600000E+00   0.1832636E+06   0.8753353E+06   0.0000000E+00
   0.9400000E+00   0.1617269E+06   0.8718585E+06   0.0000000E+00
   0.9200000E+00   0.1419058E+06   0.8665452E+06   0.0000000E+00
   0.9000000E+00   0.1238657E+06   0.8597252E+06   0.0000000E+00
   0.8800000E+00   0.1076419E+06   0.8524199E+06   0.0000000E+00
   0.8600000E+00   0.9320036E+05   0.8453739E+06   0.0000000E+00
   0.8400000E+00   0.8025539E+05   0.8372404E+06   0.0000000E+00
   0.8199999E+00   0.6883155E+05   0.8293772E+06   0.0000000E+00
   0.8000000E+00   0.5874971E+05   0.8213053E+06   0.0000000E+00
   0.7800000E+00   0.4986120E+05   0.8124993E+06   0.0000000E+00
   0.7600000E+00   0.4211348E+05   0.8038143E+06   0.0000000E+00
   0.7400000E+00   0.3540445E+05   0.7958068E+06   0.0000000E+00
   0.7200000E+00   0.2958695E+05   0.7874175E+06   0.0000000E+00
   0.6999999E+00   0.2460655E+05   0.7800394E+06   0.0000000E+00
   0.6800000E+00   0.2032846E+05   0.7721506E+06   0.0000000E+00
   0.6600000E+00   0.1668463E+05   0.7642307E+06   0.0000000E+00
   0.6400000E+00   0.1361312E+05   0.7572419E+06   0.0000000E+00
   0.6200000E+00   0.1102682E+05   0.7503321E+06   0.0000000E+00
   0.6000000E+00   0.8870668E+04   0.7442478E+06   0.0000000E+00
   0.5800000E+00   0.7073340E+04   0.7375894E+06   0.0000000E+00
   0.5600000E+00   0.5594996E+04   0.7316864E+06   0.0000000E+00
   0.5400000E+00   0.4385605E+04   0.7261041E+06   0.0000000E+00
   0.5200000E+00   0.3406039E+04   0.7213816E+06   0.0000000E+00
   0.5000000E+00   0.2615090E+04   0.7160028E+06   0.0000000E+00
   0.4800000E+00   0.1986177E+04   0.7115234E+06   0.0000000E+00
   0.4600000E+00   0.1490099E+04   0.7074214E+06   0.0000000E+00
   0.4400000E+00   0.1102687E+04   0.7033432E+06   0.0000000E+00
   0.4200000E+00   0.8040889E+03   0.6995647E+06   0.0000000E+00
   0.4000000E+00   0.5770366E+03   0.6961978E+06   0.0000000E+00
   0.3800000E+00   0.4067571E+03   0.6930357E+06   0.0000000E+00
   0.3600000E+00   0.2811097E+03   0.6900156E+06   0.0000000E+00
   0.3400000E+00   0.1901407E+03   0.6877031E+06   0.0000000E+00
   0.3200000E+00   0.1253718E+03   0.6846554E+06   0.0000000E+00
   0.3000000E+00   0.8046334E+02   0.6825986E+06   0.0000000E+00
   0.2800000E+00   0.5001976E+02   0.6804477E+06   0.0000000E+00
   0.2600000E+00   0.2997686E+02   0.6780049E+06   0.0000000E+00
   0.2400000E+00   0.1723704E+02   0.6763324E+06   0.0000000E+00
   0.2200000E+00   0.9437097E+01   0.6755051E+06   0.0000000E+00
   0.2000000E+00   0.4872693E+01   0.6733456E+06   0.0000000E+00
   0.1800000E+00   0.2340795E+01   0.6716744E+06   0.0000000E+00
   0.1600000E+00   0.1031854E+01   0.6707941E+06   0.0000000E+00
   0.1400000E+00   0.4080905E+00   0.6692112E+06   0.0000000E+00
   0.1200000E+00   0.1391703E+00   0.6653432E+06   0.0000000E+00
   0.9999999E-01   0.3859320E-01   0.6639393E+06   0.0000000E+00
   0.8000000E-01   0.7695831E-02   0.6610747E+06   0.0000000E+00
   0.6000000E-01   0.1125578E-02   0.6586265E+06   0.0000000E+00
   0.4000000E-01   0.5445164E-04   0.6603621E+06   0.0000000E+00
   0.2000000E-01  -0.9976793E-07   0.6602531E+06   0.0000000E+00
Zone t="Force sur  1- Mvt de  1 13",I= 150,F=POINT
   0.3000000E+01  -0.1192297E+02  -0.1919817E+04   0.0000000E+00
   0.2980000E+01  -0.1427256E+02  -0.1923682E+04   0.0000000E+00
   0.2960000E+01  -0.1556432E+02  -0.1921602E+04   0.0000000E+00
   0.2940000E+01  -0.1578542E+02  -0.1903874E+04   0.0000000E+00
   0.2920000E+01  -0.1564401E+02  -0.1901407E+04   0.0000000E+00
   0.2900000E+01  -0.1514504E+02  -0.1898039E+04   0.0000000E+00
   0.2880000E+01  -0.1361639E+02  -0.1899021E+04   0.0000000E+00
   0.2860000E+01  -0.1260303E+02  -0.1896823E+04   0.0000000E+00
   0.2840000E+01  -0.1224123E+02  -0.1878935E+04   0.0000000E+00
   0.2820000E+01  -0.1211265E+02  -0.1875424E+04   0.0000000E+00
   0.2800000E+01  -0.1221867E+02  -0.1882158E+04   0.0000000E+00
   0.2780000E+01  -0.1165242E+02  -0.1877633E+04   0.0000000E+00
   0.2760000E+01  -0.1188076E+02  -0.1873831E+04   0.0000000E+00
   0.2740000E+01  -0.1233284E+02  -0.1869145E+04   0.0000000E+00
   0.2720000E+01  -0.1473764E+02  -0.1864278E+04   0.0000000E+00
   0.2700000E+01  -0.1716214E+02  -0.1859380E+04   0.0000000E+00
   0.2680000E+01  -0.1990457E+02  -0.1854805E+04   0.0000000E+00
   0.2660000E+01  -0.2286250E+02  -0.1851597E+04   0.0000000E+00
   0.2640000E+01  -0.2554726E+02  -0.1848479E+04   0.0000000E+00
   0.2620000E+01  -0.1839570E+02  -0.1843679E+04   0.0000000E+00
   0.2600000E+01  -0.1135387E+02  -0.1835673E+04   0.0000000E+00
   0.2580000E+01  -0.1402303E+02  -0.1829846E+04   0.0000000E+00
   0.2560000E+01  -0.1911240E+02  -0.1824273E+04   0.0000000E+00
   0.2540000E+01  -0.1826161E+02  -0.1818206E+04   0.0000000E+00
   0.2520000E+01  -0.1601270E+02  -0.1811008E+04   0.0000000E+00
   0.2500000E+01  -0.1296187E+02  -0.1804387E+04   0.0000000E+00
   0.2480000E+01  -0.1452048E+02  -0.1799442E+04   0.0000000E+00
   0.2460000E+01  -0.1931397E+02  -0.1793427E+04   0.0000000E+00
   0.2440000E+01  -0.2063400E+02  -0.1785812E+04   0.0000000E+00
   0.2420000E+01  -0.1825974E+02  -0.1777043E+04   0.0000000E+00
   0.2400000E+01  -0.1258827E+02  -0.1769501E+04   0.0000000E+00
   0.2380000E+01  -0.7588798E+01  -0.1761974E+04   0.0000000E+00
   0.2360000E+01  -0.3826847E+01  -0.1753756E+04   0.0000000E+00
   0.2340000E+01   0.2071051E+01  -0.1746904E+04   0.0000000E+00
   0.2320000E+01   0.1455476E+02  -0.1740295E+04   0.0000000E+00
   0.2300000E+01   0.3117126E+02  -0.1732597E+04   0.0000000E+00
   0.2280000E+01   0.4974284E+02  -0.1720173E+04   0.0000000E+00
   0.2260000E+01   0.4635358E+02  -0.1705434E+04   0.0000000E+00
   0.2240000E+01   0.3894398E+02  -0.1698694E+04   0.0000000E+00
   0.2220000E+01   0.3523774E+02  -0.1691370E+04   0.0000000E+00
   0.2200000E+01   0.4238002E+02  -0.1675342E+04   0.0000000E+00
   0.2180000E+01   0.5136801E+02  -0.1654088E+04   0.0000000E+00
   0.2160000E+01   0.6138288E+02  -0.1633163E+04   0.0000000E+00
   0.2140000E+01   0.6236969E+02  -0.1618295E+04   0.0000000E+00
   0.2120000E+01   0.6157195E+02  -0.1599438E+04   0.0000000E+00
   0.2100000E+01   0.6130690E+02  -0.1574381E+04   0.0000000E+00
   0.2080000E+01   0.6486156E+02  -0.1545519E+04   0.0000000E+00
   0.2060000E+01   0.6662460E+02  -0.1517114E+04   0.0000000E+00
   0.2040000E+01   0.6466711E+02  -0.1487838E+04   0.0000000E+00
   0.2020000E+01   0.6517127E+02  -0.1453916E+04   0.0000000E+00
   0.2000000E+01   0.6651943E+02  -0.1418799E+04   0.0000000E+00
   0.1980000E+01   0.6127951E+02  -0.1376252E+04   0.0000000E+00
   0.1960000E+01   0.3760826E+02  -0.1336572E+04   0.0000000E+00
   0.1940000E+01   0.1848465E+02  -0.1310562E+04   0.0000000E+00
   0.1920000E+01  -0.2033234E+01  -0.1281233E+04   0.0000000E+00
   0.1900000E+01  -0.3463583E+02  -0.1233897E+04   0.0000000E+00
   0.1880000E+01  -0.7803009E+02  -0.1180471E+04   0.0000000E+00
   0.1860000E+01  -0.1183865E+03  -0.1135113E+04   0.0000000E+00
   0.1840000E+01  -0.1682193E+03  -0.1093059E+04   0.0000000E+00
   0.1820000E+01  -0.2316252E+03  -0.1042404E+04   0.0000000E+00
   0.1800000E+01  -0.3039225E+03  -0.9865547E+03   0.0000000E+00
   0.1780000E+01  -0.3826300E+03  -0.9314676E+03   0.0000000E+00
   0.1760000E+01  -0.4677721E+03  -0.8790247E+03   0.0000000E+00
   0.1740000E+01  -0.5655841E+03  -0.8222668E+03   0.0000000E+00
   0.1720000E+01  -0.6727159E+03  -0.7659553E+03   0.0000000E+00
   0.1700000E+01  -0.7913855E+03  -0.7149515E+03   0.0000000E+00
   0.1680000E+01  -0.8936890E+03  -0.6800094E+03   0.0000000E+00
   0.1660000E+01  -0.1006575E+04  -0.6471069E+03   0.0000000E+00
   0.1640000E+01  -0.1153511E+04  -0.6052891E+03   0.0000000E+00
   0.1620000E+01  -0.1309753E+04  -0.5689751E+03   0.0000000E+00
   0.1600000E+01  -0.1456467E+04  -0.5492705E+03   0.0000000E+00
   0.1580000E+01  -0.1613339E+04  -0.5319204E+03   0.0000000E+00
   0.1560000E+01  -0.1785723E+04  -0.5185115E+03   0.0000000E+00
   0.1540000E+01  -0.1963775E+04  -0.5147791E+03   0.0000000E+00
   0.1520000E+01  -0.2141365E+04  -0.5229603E+03   0.0000000E+00
   0.1500000E+01  -0.2323040E+04  -0.5436152E+03   0.0000000E+00
   0.1480000E+01  -0.2512378E+04  -0.5772896E+03   0.0000000E+00
   0.1460000E+01  -0.2674194E+04  -0.6264146E+03   0.0000000E+00
   0.1440000E+01  -0.2820477E+04  -0.6900142E+03   0.0000000E+00
   0.1420000E+01  -0.2988673E+04  -0.7649222E+03   0.0000000E+00
   0.1400000E+01  -0.3147939E+04  -0.8559409E+03   0.0000000E+00
   0.1380000E+01  -0.3274306E+04  -0.9649760E+03   0.0000000E+00
   0.1360000E+01  -0.3399475E+04  -0.1088873E+04   0.0000000E+00
   0.1340000E+01  -0.3508472E+04  -0.1228807E+04   0.0000000E+00
   0.1320000E+01  -0.3598638E+04  -0.1383955E+04   0.0000000E+00
   0.1300000E+01  -0.3662253E+04  -0.1555514E+04   0.0000000E+00
   0.1280000E+01  -0.3704253E+04  -0.1738751E+04   0.0000000E+00
   0.1260000E+01  -0.3705797E+04  -0.1923966E+04   0.0000000E+00
   0.1240000E+01  -0.3683377E+04  -0.2117280E+04   0.0000000E+00
   0.1220000E+01  -0.3653663E+04  -0.2318359E+04   0.0000000E+00
   0.1200000E+01  -0.3580962E+04  -0.2513234E+04   0.0000000E+00
   0.1180000E+01  -0.3487925E+04  -0.2708895E+04   0.0000000E+00
   0.1160000E+01  -0.3373276E+04  -0.2902673E+04   0.0000000E+00
   0.1140000E+01  -0.3239685E+04  -0.3089826E+04   0.0000000E+00
   0.1120000E+01  -0.3085452E+04  -0.3266230E+04   0.0000000E+00
   0.1100000E+01  -0.2918566E+04  -0.3428576E+04   0.0000000E+00
   0.1080000E+01  -0.2735270E+04  -0.3566751E+04   0.0000000E+00
   0.1060000E+01  -0.2556871E+04  -0.3700634E+04   0.0000000E+00
   0.1040000E+01  -0.2369335E+04  -0.3811781E+04   0.0000000E+00
   0.1020000E+01  -0.2181336E+04  -0.3907275E+04   0.0000000E+00
   0.1000000E+01  -0.1996210E+04  -0.3989572E+04   0.0000000E+00
   0.9800000E+00  -0.1815519E+04  -0.4057226E+04   0.0000000E+00
   0.9600000E+00  -0.1639973E+04  -0.4105045E+04   0.0000000E+00
   0.9400000E+00  -0.1472299E+04  -0.4135643E+04   0.0000000E+00
   0.9200000E+00  -0.1315486E+04  -0.4157305E+04   0.0000000E+00
   0.9000000E+00  -0.1168345E+04  -0.4167048E+04   0.0000000E+00
   0.8800000E+00  -0.1031606E+04  -0.4166898E+04   0.0000000E+00
   0.8600000E+00  -0.9060155E+03  -0.4158760E+04   0.0000000E+00
   0.8400000E+00  -0.7902540E+03  -0.4140198E+04   0.0000000E+00
   0.8199999E+00  -0.6853551E+03  -0.4114832E+04   0.0000000E+00
   0.8000000E+00  -0.5907532E+03  -0.4082888E+04   0.0000000E+00
   0.7800000E+00  -0.5061757E+03  -0.4047856E+04   0.0000000E+00
   0.7600000E+00  -0.4306901E+03  -0.4006764E+04   0.0000000E+00
   0.7400000E+00  -0.3640910E+03  -0.3964641E+04   0.0000000E+00
   0.7200000E+00  -0.3052870E+03  -0.3920177E+04   0.0000000E+00
   0.6999999E+00  -0.2541128E+03  -0.3873771E+04   0.0000000E+00
   0.6800000E+00  -0.2099281E+03  -0.3828674E+04   0.0000000E+00
   0.6600000E+00  -0.1717543E+03  -0.3781971E+04   0.0000000E+00
   0.6400000E+00  -0.1392410E+03  -0.3736228E+04   0.0000000E+00
   0.6200000E+00  -0.1116674E+03  -0.3691729E+04   0.0000000E+00
   0.6000000E+00  -0.8858807E+02  -0.3645570E+04   0.0000000E+00
   0.5800000E+00  -0.6936096E+02  -0.3599682E+04   0.0000000E+00
   0.5600000E+00  -0.5353961E+02  -0.3560964E+04   0.0000000E+00
   0.5400000E+00  -0.4069412E+02  -0.3521558E+04   0.0000000E+00
   0.5200000E+00  -0.3037201E+02  -0.3484774E+04   0.0000000E+00
   0.5000000E+00  -0.2217511E+02  -0.3447176E+04   0.0000000E+00
   0.4800000E+00  -0.1579492E+02  -0.3415085E+04   0.0000000E+00
   0.4600000E+00  -0.1089993E+02  -0.3382761E+04   0.0000000E+00
   0.4400000E+00  -0.7223236E+01  -0.3354937E+04   0.0000000E+00
   0.4200000E+00  -0.4529831E+01  -0.3328847E+04   0.0000000E+00
   0.4000000E+00  -0.2619034E+01  -0.3304186E+04   0.0000000E+00
   0.3800000E+00  -0.1313507E+01  -0.3280608E+04   0.0000000E+00
   0.3600000E+00  -0.4650574E+00  -0.3259799E+04   0.0000000E+00
   0.3400000E+00   0.5189514E-01  -0.3242167E+04   0.0000000E+00
   0.3200000E+00   0.3270340E+00  -0.3224431E+04   0.0000000E+00
   0.3000000E+00   0.4401245E+00  -0.3209465E+04   0.0000000E+00
   0.2800000E+00   0.4488907E+00  -0.3194894E+04   0.0000000E+00
   0.2600000E+00   0.4024277E+00  -0.3182460E+04   0.0000000E+00
   0.2400000E+00   0.3269081E+00  -0.3170552E+04   0.0000000E+00
   0.2200000E+00   0.2471542E+00  -0.3163121E+04   0.0000000E+00
   0.2000000E+00   0.1744995E+00  -0.3152707E+04   0.0000000E+00
   0.1800000E+00   0.1143036E+00  -0.3143176E+04   0.0000000E+00
   0.1600000E+00   0.6926155E-01  -0.3137971E+04   0.0000000E+00
   0.1400000E+00   0.3805923E-01  -0.3130060E+04   0.0000000E+00
   0.1200000E+00   0.1862192E-01  -0.3116519E+04   0.0000000E+00
   0.9999999E-01   0.7809639E-02  -0.3108083E+04   0.0000000E+00
   0.8000000E-01   0.2680302E-02  -0.3089793E+04   0.0000000E+00
   0.6000000E-01   0.6278753E-03  -0.3079913E+04   0.0000000E+00
   0.4000000E-01   0.8332729E-04  -0.3083604E+04   0.0000000E+00
   0.2000000E-01   0.3170222E-05  -0.3082867E+04   0.0000000E+00
Zone t="Force sur  1- Mvt de  1 15",I= 150,F=POINT
   0.3000000E+01  -0.1322311E+06  -0.2003176E+07   0.0000000E+00
   0.2980000E+01  -0.1388733E+06  -0.1997058E+07   0.0000000E+00
   0.2960000E+01  -0.1447242E+06  -0.1991875E+07   0.0000000E+00
   0.2940000E+01  -0.1495104E+06  -0.1988349E+07   0.0000000E+00
   0.2920000E+01  -0.1545767E+06  -0.1984493E+07   0.0000000E+00
   0.2900000E+01  -0.1602863E+06  -0.1980014E+07   0.0000000E+00
   0.2880000E+01  -0.1646898E+06  -0.1975773E+07   0.0000000E+00
   0.2860000E+01  -0.1679385E+06  -0.1971336E+07   0.0000000E+00
   0.2840000E+01  -0.1718242E+06  -0.1966601E+07   0.0000000E+00
   0.2820000E+01  -0.1767447E+06  -0.1961363E+07   0.0000000E+00
   0.2800000E+01  -0.1827109E+06  -0.1955629E+07   0.0000000E+00
   0.2780000E+01  -0.1887410E+06  -0.1950683E+07   0.0000000E+00
   0.2760000E+01  -0.1958501E+06  -0.1944953E+07   0.0000000E+00
   0.2740000E+01  -0.2040135E+06  -0.1938591E+07   0.0000000E+00
   0.2720000E+01  -0.2130345E+06  -0.1931796E+07   0.0000000E+00
   0.2700000E+01  -0.2195279E+06  -0.1926148E+07   0.0000000E+00
   0.2680000E+01  -0.2253481E+06  -0.1920739E+07   0.0000000E+00
   0.2660000E+01  -0.2319897E+06  -0.1915164E+07   0.0000000E+00
   0.2640000E+01  -0.2396523E+06  -0.1909280E+07   0.0000000E+00
   0.2620000E+01  -0.2487743E+06  -0.1902565E+07   0.0000000E+00
   0.2600000E+01  -0.2596106E+06  -0.1894814E+07   0.0000000E+00
   0.2580000E+01  -0.2718080E+06  -0.1886201E+07   0.0000000E+00
   0.2560000E+01  -0.2834914E+06  -0.1877277E+07   0.0000000E+00
   0.2540000E+01  -0.2920793E+06  -0.1870551E+07   0.0000000E+00
   0.2520000E+01  -0.3020576E+06  -0.1863264E+07   0.0000000E+00
   0.2500000E+01  -0.3118084E+06  -0.1855678E+07   0.0000000E+00
   0.2480000E+01  -0.3211039E+06  -0.1847349E+07   0.0000000E+00
   0.2460000E+01  -0.3321567E+06  -0.1838000E+07   0.0000000E+00
   0.2440000E+01  -0.3450608E+06  -0.1828640E+07   0.0000000E+00
   0.2420000E+01  -0.3591811E+06  -0.1819212E+07   0.0000000E+00
   0.2400000E+01  -0.3734508E+06  -0.1810086E+07   0.0000000E+00
   0.2380000E+01  -0.3903401E+06  -0.1799914E+07   0.0000000E+00
   0.2360000E+01  -0.4096172E+06  -0.1789066E+07   0.0000000E+00
   0.2340000E+01  -0.4272324E+06  -0.1778616E+07   0.0000000E+00
   0.2320000E+01  -0.4431875E+06  -0.1768476E+07   0.0000000E+00
   0.2300000E+01  -0.4606181E+06  -0.1758441E+07   0.0000000E+00
   0.2280000E+01  -0.4804490E+06  -0.1748051E+07   0.0000000E+00
   0.2260000E+01  -0.5038234E+06  -0.1736807E+07   0.0000000E+00
   0.2240000E+01  -0.5309967E+06  -0.1724320E+07   0.0000000E+00
   0.2220000E+01  -0.5602336E+06  -0.1711200E+07   0.0000000E+00
   0.2200000E+01  -0.5844241E+06  -0.1699834E+07   0.0000000E+00
   0.2180000E+01  -0.6102961E+06  -0.1688441E+07   0.0000000E+00
   0.2160000E+01  -0.6372450E+06  -0.1676655E+07   0.0000000E+00
   0.2140000E+01  -0.6666764E+06  -0.1664230E+07   0.0000000E+00
   0.2120000E+01  -0.6994762E+06  -0.1651810E+07   0.0000000E+00
   0.2100000E+01  -0.7348440E+06  -0.1639669E+07   0.0000000E+00
   0.2080000E+01  -0.7689934E+06  -0.1628275E+07   0.0000000E+00
   0.2060000E+01  -0.8084218E+06  -0.1616398E+07   0.0000000E+00
   0.2040000E+01  -0.8518198E+06  -0.1604578E+07   0.0000000E+00
   0.2020000E+01  -0.8920744E+06  -0.1593779E+07   0.0000000E+00
   0.2000000E+01  -0.9342072E+06  -0.1583401E+07   0.0000000E+00
   0.1980000E+01  -0.9772783E+06  -0.1573827E+07   0.0000000E+00
   0.1960000E+01  -0.1025292E+07  -0.1564792E+07   0.0000000E+00
   0.1940000E+01  -0.1079662E+07  -0.1555883E+07   0.0000000E+00
   0.1920000E+01  -0.1137246E+07  -0.1547749E+07   0.0000000E+00
   0.1900000E+01  -0.1187742E+07  -0.1541412E+07   0.0000000E+00
   0.1880000E+01  -0.1241829E+07  -0.1536351E+07   0.0000000E+00
   0.1860000E+01  -0.1296976E+07  -0.1532803E+07   0.0000000E+00
   0.1840000E+01  -0.1355697E+07  -0.1531057E+07   0.0000000E+00
   0.1820000E+01  -0.1416084E+07  -0.1531300E+07   0.0000000E+00
   0.1800000E+01  -0.1475091E+07  -0.1533422E+07   0.0000000E+00
   0.1780000E+01  -0.1539075E+07  -0.1537714E+07   0.0000000E+00
   0.1760000E+01  -0.1605086E+07  -0.1544441E+07   0.0000000E+00
   0.1740000E+01  -0.1664324E+07  -0.1553622E+07   0.0000000E+00
   0.1720000E+01  -0.1724995E+07  -0.1565251E+07   0.0000000E+00
   0.1700000E+01  -0.1787387E+07  -0.1579955E+07   0.0000000E+00
   0.1680000E+01  -0.1853941E+07  -0.1597944E+07   0.0000000E+00
   0.1660000E+01  -0.1920472E+07  -0.1619363E+07   0.0000000E+00
   0.1640000E+01  -0.1977840E+07  -0.1643320E+07   0.0000000E+00
   0.1620000E+01  -0.2035266E+07  -0.1671287E+07   0.0000000E+00
   0.1600000E+01  -0.2091224E+07  -0.1703389E+07   0.0000000E+00
   0.1580000E+01  -0.2147003E+07  -0.1739476E+07   0.0000000E+00
   0.1560000E+01  -0.2199196E+07  -0.1779786E+07   0.0000000E+00
   0.1540000E+01  -0.2251125E+07  -0.1825427E+07   0.0000000E+00
   0.1520000E+01  -0.2298556E+07  -0.1875782E+07   0.0000000E+00
   0.1500000E+01  -0.2336981E+07  -0.1929970E+07   0.0000000E+00
   0.1480000E+01  -0.2371266E+07  -0.1988942E+07   0.0000000E+00
   0.1460000E+01  -0.2404112E+07  -0.2054489E+07   0.0000000E+00
   0.1440000E+01  -0.2433168E+07  -0.2126369E+07   0.0000000E+00
   0.1420000E+01  -0.2448023E+07  -0.2200715E+07   0.0000000E+00
   0.1400000E+01  -0.2454918E+07  -0.2280151E+07   0.0000000E+00
   0.1380000E+01  -0.2452108E+07  -0.2364369E+07   0.0000000E+00
   0.1360000E+01  -0.2441274E+07  -0.2452884E+07   0.0000000E+00
   0.1340000E+01  -0.2420626E+07  -0.2544886E+07   0.0000000E+00
   0.1320000E+01  -0.2391879E+07  -0.2641089E+07   0.0000000E+00
   0.1300000E+01  -0.2346276E+07  -0.2735592E+07   0.0000000E+00
   0.1280000E+01  -0.2291293E+07  -0.2831166E+07   0.0000000E+00
   0.1260000E+01  -0.2229062E+07  -0.2929446E+07   0.0000000E+00
   0.1240000E+01  -0.2156069E+07  -0.3025804E+07   0.0000000E+00
   0.1220000E+01  -0.2071086E+07  -0.3116786E+07   0.0000000E+00
   0.1200000E+01  -0.1976289E+07  -0.3202616E+07   0.0000000E+00
   0.1180000E+01  -0.1875598E+07  -0.3283977E+07   0.0000000E+00
   0.1160000E+01  -0.1769026E+07  -0.3358638E+07   0.0000000E+00
   0.1140000E+01  -0.1659328E+07  -0.3427703E+07   0.0000000E+00
   0.1120000E+01  -0.1545205E+07  -0.3485453E+07   0.0000000E+00
   0.1100000E+01  -0.1431642E+07  -0.3537516E+07   0.0000000E+00
   0.1080000E+01  -0.1320267E+07  -0.3584995E+07   0.0000000E+00
   0.1060000E+01  -0.1208386E+07  -0.3618820E+07   0.0000000E+00
   0.1040000E+01  -0.1099299E+07  -0.3643262E+07   0.0000000E+00
   0.1020000E+01  -0.9948506E+06  -0.3661014E+07   0.0000000E+00
   0.1000000E+01  -0.8959908E+06  -0.3672798E+07   0.0000000E+00
   0.9800000E+00  -0.8025876E+06  -0.3677410E+07   0.0000000E+00
   0.9600000E+00  -0.7152683E+06  -0.3675393E+07   0.0000000E+00
   0.9400000E+00  -0.6349300E+06  -0.3671948E+07   0.0000000E+00
   0.9200000E+00  -0.5602496E+06  -0.3659997E+07   0.0000000E+00
   0.9000000E+00  -0.4917318E+06  -0.3642450E+07   0.0000000E+00
   0.8800000E+00  -0.4296096E+06  -0.3622644E+07   0.0000000E+00
   0.8600000E+00  -0.3739065E+06  -0.3603090E+07   0.0000000E+00
   0.8400000E+00  -0.3235839E+06  -0.3577775E+07   0.0000000E+00
   0.8199999E+00  -0.2788770E+06  -0.3553548E+07   0.0000000E+00
   0.8000000E+00  -0.2391658E+06  -0.3528152E+07   0.0000000E+00
   0.7800000E+00  -0.2039152E+06  -0.3499390E+07   0.0000000E+00
   0.7600000E+00  -0.1729992E+06  -0.3471204E+07   0.0000000E+00
   0.7400000E+00  -0.1460683E+06  -0.3444624E+07   0.0000000E+00
   0.7200000E+00  -0.1225772E+06  -0.3415225E+07   0.0000000E+00
   0.6999999E+00  -0.1023640E+06  -0.3390872E+07   0.0000000E+00
   0.6800000E+00  -0.8489900E+05  -0.3362909E+07   0.0000000E+00
   0.6600000E+00  -0.6994955E+05  -0.3335618E+07   0.0000000E+00
   0.6400000E+00  -0.5728591E+05  -0.3311280E+07   0.0000000E+00
   0.6200000E+00  -0.4656979E+05  -0.3286190E+07   0.0000000E+00
   0.6000000E+00  -0.3759599E+05  -0.3265190E+07   0.0000000E+00
   0.5800000E+00  -0.3008103E+05  -0.3241338E+07   0.0000000E+00
   0.5600000E+00  -0.2387385E+05  -0.3220578E+07   0.0000000E+00
   0.5400000E+00  -0.1877425E+05  -0.3199819E+07   0.0000000E+00
   0.5200000E+00  -0.1462752E+05  -0.3183014E+07   0.0000000E+00
   0.5000000E+00  -0.1126594E+05  -0.3163683E+07   0.0000000E+00
   0.4800000E+00  -0.8583072E+04  -0.3147992E+07   0.0000000E+00
   0.4600000E+00  -0.6458824E+04  -0.3132642E+07   0.0000000E+00
   0.4400000E+00  -0.4794048E+04  -0.3117765E+07   0.0000000E+00
   0.4200000E+00  -0.3506494E+04  -0.3104589E+07   0.0000000E+00
   0.4000000E+00  -0.2524010E+04  -0.3091809E+07   0.0000000E+00
   0.3800000E+00  -0.1784787E+04  -0.3080712E+07   0.0000000E+00
   0.3600000E+00  -0.1237367E+04  -0.3070051E+07   0.0000000E+00
   0.3400000E+00  -0.8398052E+03  -0.3061634E+07   0.0000000E+00
   0.3200000E+00  -0.5556775E+03  -0.3050590E+07   0.0000000E+00
   0.3000000E+00  -0.3580238E+03  -0.3043255E+07   0.0000000E+00
   0.2800000E+00  -0.2235440E+03  -0.3035512E+07   0.0000000E+00
   0.2600000E+00  -0.1346112E+03  -0.3027666E+07   0.0000000E+00
   0.2400000E+00  -0.7782695E+02  -0.3021798E+07   0.0000000E+00
   0.2200000E+00  -0.4291669E+02  -0.3018192E+07   0.0000000E+00
   0.2000000E+00  -0.2233047E+02  -0.3011096E+07   0.0000000E+00
   0.1800000E+00  -0.1085220E+02  -0.3005548E+07   0.0000000E+00
   0.1600000E+00  -0.4850372E+01  -0.3002380E+07   0.0000000E+00
   0.1400000E+00  -0.1957268E+01  -0.2997032E+07   0.0000000E+00
   0.1200000E+00  -0.6907063E+00  -0.2985028E+07   0.0000000E+00
   0.9999999E-01  -0.2009516E+00  -0.2976732E+07   0.0000000E+00
   0.8000000E-01  -0.4346466E-01  -0.2962556E+07   0.0000000E+00
   0.6000000E-01  -0.7637501E-02  -0.2954024E+07   0.0000000E+00
   0.4000000E-01  -0.5131960E-03  -0.2959988E+07   0.0000000E+00
   0.2000000E-01  -0.7316470E-05  -0.2959584E+07   0.0000000E+00
Zone t="Force sur  1- Mvt de  1 22",I= 150,F=POINT
   0.3000000E+01   0.1100178E+06   0.3359458E+06   0.0000000E+00
   0.2980000E+01   0.1136207E+06   0.3344139E+06   0.0000000E+00
   0.2960000E+01   0.1169369E+06   0.3330465E+06   0.0000000E+00
   0.2940000E+01   0.1199837E+06   0.3319427E+06   0.0000000E+00
   0.2920000E+01   0.1230684E+06   0.3308141E+06   0.0000000E+00
   0.2900000E+01   0.1262656E+06   0.3295473E+06   0.0000000E+00
   0.2880000E+01   0.1291542E+06   0.3284154E+06   0.0000000E+00