VARIABLES="X" "Y" "Z" "NX" "NY" "NZ" "A"
 ZONE N=         500 , E=         280  , F=FEPOINT,ET=QUADRILATERAL
   0.4755283E+01   0.1545085E+01  -0.1000000E+02   0.0000000E+00   0.0000000E+00   0.0000000E+00   0.0000000E+00
   0.4755283E+01   0.1545085E+01  -0.9090909E+01   0.0000000E+00   0.0000000E+00   0.0000000E+00   0.0000000E+00
   0.4755283E+01   0.1545085E+01  -0.8181818E+01   0.0000000E+00   0.0000000E+00   0.0000000E+00   0.0000000E+00
   0.4755283E+01   0.1545085E+01  -0.7272727E+01   0.0000000E+00   0.0000000E+00   0.0000000E+00   0.0000000E+00
   0.4755283E+01   0.1545085E+01  -0.6363636E+01   0.0000000E+00   0.0000000E+00   0.0000000E+00   0.0000000E+00
   0.4755283E+01   0.1545085E+01  -0.5454545E+01   0.0000000E+00   0.0000000E+00   0.0000000E+00   0.0000000E+00
   0.4755283E+01   0.1545085E+01  -0.4545455E+01   0.0000000E+00   0.0000000E+00   0.0000000E+00   0.0000000E+00
   0.4755283E+01   0.1545085E+01  -0.3636364E+01   0.0000000E+00   0.0000000E+00   0.0000000E+00   0.0000000E+00
   0.4755283E+01   0.1545085E+01  -0.2727273E+01   0.0000000E+00   0.0000000E+00   0.0000000E+00   0.0000000E+00
   0.4755283E+01   0.1545085E+01  -0.1818182E+01   0.0000000E+00   0.0000000E+00   0.0000000E+00   0.0000000E+00
   0.4755283E+01   0.1545085E+01  -0.9090910E+00   0.0000000E+00   0.0000000E+00   0.0000000E+00   0.0000000E+00
   0.4755283E+01   0.1545085E+01   0.0000000E+00   0.0000000E+00   0.0000000E+00   0.0000000E+00   0.0000000E+00
   0.4877642E+01   0.7725425E+00  -0.1000000E+02   0.0000000E+00   0.0000000E+00   0.0000000E+00   0.0000000E+00
   0.4877642E+01   0.7725425E+00  -0.9090909E+01   0.0000000E+00   0.0000000E+00   0.0000000E+00   0.0000000E+00
   0.4877642E+01   0.7725425E+00  -0.8181818E+01   0.0000000E+00   0.0000000E+00   0.0000000E+00   0.0000000E+00
   0.4877642E+01   0.7725425E+00  -0.7272727E+01   0.0000000E+00   0.0000000E+00   0.0000000E+00   0.0000000E+00
   0.4877642E+01   0.7725425E+00  -0.6363636E+01   0.0000000E+00   0.0000000E+00   0.0000000E+00   0.0000000E+00
   0.4877642E+01   0.7725425E+00  -0.5454545E+01   0.0000000E+00   0.0000000E+00   0.0000000E+00   0.0000000E+00
   0.4877642E+01   0.7725425E+00  -0.4545455E+01   0.0000000E+00   0.0000000E+00   0.0000000E+00   0.0000000E+00
   0.4877642E+01   0.7725425E+00  -0.3636364E+01   0.0000000E+00   0.0000000E+00   0.0000000E+00   0.0000000E+00
   0.4877642E+01   0.7725425E+00  -0.2727273E+01   0.0000000E+00   0.0000000E+00   0.0000000E+00   0.0000000E+00
   0.4877642E+01   0.7725425E+00  -0.1818182E+01   0.0000000E+00   0.0000000E+00   0.0000000E+00   0.0000000E+00
   0.4877642E+01   0.7725425E+00  -0.9090910E+00   0.0000000E+00   0.0000000E+00   0.0000000E+00   0.0000000E+00
   0.4877642E+01   0.7725425E+00   0.0000000E+00   0.0000000E+00   0.0000000E+00   0.0000000E+00   0.0000000E+00
   0.5000000E+01   0.0000000E+00  -0.1000000E+02   0.0000000E+00   0.0000000E+00   0.0000000E+00   0.0000000E+00
   0.5000000E+01   0.0000000E+00  -0.9090909E+01   0.0000000E+00   0.0000000E+00   0.0000000E+00   0.0000000E+00
   0.5000000E+01   0.0000000E+00  -0.8181818E+01   0.0000000E+00   0.0000000E+00   0.0000000E+00   0.0000000E+00
   0.5000000E+01   0.0000000E+00  -0.7272727E+01   0.0000000E+00   0.0000000E+00   0.0000000E+00   0.0000000E+00
   0.5000000E+01   0.0000000E+00  -0.6363636E+01   0.0000000E+00   0.0000000E+00   0.0000000E+00   0.0000000E+00
   0.5000000E+01   0.0000000E+00  -0.5454545E+01   0.0000000E+00   0.0000000E+00   0.0000000E+00   0.0000000E+00
   0.5000000E+01   0.0000000E+00  -0.4545455E+01   0.0000000E+00   0.0000000E+00   0.0000000E+00   0.0000000E+00
   0.5000000E+01   0.0000000E+00  -0.3636364E+01   0.0000000E+00   0.0000000E+00   0.0000000E+00   0.0000000E+00
   0.5000000E+01   0.0000000E+00  -0.2727273E+01   0.0000000E+00   0.0000000E+00   0.0000000E+00   0.0000000E+00
   0.5000000E+01   0.0000000E+00  -0.1818182E+01   0.0000000E+00   0.0000000E+00   0.0000000E+00   0.0000000E+00
   0.5000000E+01   0.0000000E+00  -0.9090910E+00   0.0000000E+00   0.0000000E+00   0.0000000E+00   0.0000000E+00
   0.5000000E+01   0.0000000E+00   0.0000000E+00   0.0000000E+00   0.0000000E+00   0.0000000E+00   0.0000000E+00
   0.4045085E+01   0.2938926E+01  -0.1000000E+02   0.0000000E+00   0.0000000E+00   0.0000000E+00   0.0000000E+00
   0.4045085E+01   0.2938926E+01  -0.9090909E+01   0.0000000E+00   0.0000000E+00   0.0000000E+00   0.0000000E+00
   0.4045085E+01   0.2938926E+01  -0.8181818E+01   0.0000000E+00   0.0000000E+00   0.0000000E+00   0.0000000E+00
   0.4045085E+01   0.2938926E+01  -0.7272727E+01   0.0000000E+00   0.0000000E+00   0.0000000E+00   0.0000000E+00
   0.4045085E+01   0.2938926E+01  -0.6363636E+01   0.0000000E+00   0.0000000E+00   0.0000000E+00   0.0000000E+00
   0.4045085E+01   0.2938926E+01  -0.5454545E+01   0.0000000E+00   0.0000000E+00   0.0000000E+00   0.0000000E+00
   0.4045085E+01   0.2938926E+01  -0.4545455E+01   0.0000000E+00   0.0000000E+00   0.0000000E+00   0.0000000E+00
   0.4045085E+01   0.2938926E+01  -0.3636364E+01   0.0000000E+00   0.0000000E+00   0.0000000E+00   0.0000000E+00
   0.4045085E+01   0.2938926E+01  -0.2727273E+01   0.0000000E+00   0.0000000E+00   0.0000000E+00   0.0000000E+00
   0.4045085E+01   0.2938926E+01  -0.1818182E+01   0.0000000E+00   0.0000000E+00   0.0000000E+00   0.0000000E+00
   0.4045085E+01   0.2938926E+01  -0.9090910E+00   0.0000000E+00   0.0000000E+00   0.0000000E+00   0.0000000E+00
   0.4045085E+01   0.2938926E+01   0.0000000E+00   0.0000000E+00   0.0000000E+00   0.0000000E+00   0.0000000E+00
   0.4400184E+01   0.2242005E+01  -0.1000000E+02   0.0000000E+00   0.0000000E+00   0.0000000E+00   0.0000000E+00
   0.4400184E+01   0.2242005E+01  -0.9090909E+01   0.0000000E+00   0.0000000E+00   0.0000000E+00   0.0000000E+00
   0.4400184E+01   0.2242005E+01  -0.8181818E+01   0.0000000E+00   0.0000000E+00   0.0000000E+00   0.0000000E+00
   0.4400184E+01   0.2242005E+01  -0.7272727E+01   0.0000000E+00   0.0000000E+00   0.0000000E+00   0.0000000E+00
   0.4400184E+01   0.2242005E+01  -0.6363636E+01   0.0000000E+00   0.0000000E+00   0.0000000E+00   0.0000000E+00
   0.4400184E+01   0.2242005E+01  -0.5454545E+01   0.0000000E+00   0.0000000E+00   0.0000000E+00   0.0000000E+00
   0.4400184E+01   0.2242005E+01  -0.4545455E+01   0.0000000E+00   0.0000000E+00   0.0000000E+00   0.0000000E+00
   0.4400184E+01   0.2242005E+01  -0.3636364E+01   0.0000000E+00   0.0000000E+00   0.0000000E+00   0.0000000E+00
   0.4400184E+01   0.2242005E+01  -0.2727273E+01   0.0000000E+00   0.0000000E+00   0.0000000E+00   0.0000000E+00
   0.4400184E+01   0.2242005E+01  -0.1818182E+01   0.0000000E+00   0.0000000E+00   0.0000000E+00   0.0000000E+00
   0.4400184E+01   0.2242005E+01  -0.9090910E+00   0.0000000E+00   0.0000000E+00   0.0000000E+00   0.0000000E+00
   0.4400184E+01   0.2242005E+01   0.0000000E+00   0.0000000E+00   0.0000000E+00   0.0000000E+00   0.0000000E+00
   0.4755283E+01   0.1545085E+01  -0.1000000E+02   0.0000000E+00   0.0000000E+00   0.0000000E+00   0.0000000E+00
   0.4755283E+01   0.1545085E+01  -0.9090909E+01   0.0000000E+00   0.0000000E+00   0.0000000E+00   0.0000000E+00
   0.4755283E+01   0.1545085E+01  -0.8181818E+01   0.0000000E+00   0.0000000E+00   0.0000000E+00   0.0000000E+00
   0.4755283E+01   0.1545085E+01  -0.7272727E+01   0.0000000E+00   0.0000000E+00   0.0000000E+00   0.0000000E+00
   0.4755283E+01   0.1545085E+01  -0.6363636E+01   0.0000000E+00   0.0000000E+00   0.0000000E+00   0.0000000E+00
   0.4755283E+01   0.1545085E+01  -0.5454545E+01   0.0000000E+00   0.0000000E+00   0.0000000E+00   0.0000000E+00
   0.4755283E+01   0.1545085E+01  -0.4545455E+01   0.0000000E+00   0.0000000E+00   0.0000000E+00   0.0000000E+00
   0.4755283E+01   0.1545085E+01  -0.3636364E+01   0.0000000E+00   0.0000000E+00   0.0000000E+00   0.0000000E+00
   0.4755283E+01   0.1545085E+01  -0.2727273E+01   0.0000000E+00   0.0000000E+00   0.0000000E+00   0.0000000E+00
   0.4755283E+01   0.1545085E+01  -0.1818182E+01   0.0000000E+00   0.0000000E+00   0.0000000E+00   0.0000000E+00
   0.4755283E+01   0.1545085E+01  -0.9090910E+00   0.0000000E+00   0.0000000E+00   0.0000000E+00   0.0000000E+00
   0.4755283E+01   0.1545085E+01   0.0000000E+00   0.0000000E+00   0.0000000E+00   0.0000000E+00   0.0000000E+00
   0.2938926E+01   0.4045085E+01  -0.1000000E+02   0.0000000E+00   0.0000000E+00   0.0000000E+00   0.0000000E+00
   0.2938926E+01   0.4045085E+01  -0.9090909E+01   0.0000000E+00   0.0000000E+00   0.0000000E+00   0.0000000E+00
   0.2938926E+01   0.4045085E+01  -0.8181818E+01   0.0000000E+00   0.0000000E+00   0.0000000E+00   0.0000000E+00
   0.2938926E+01   0.4045085E+01  -0.7272727E+01   0.0000000E+00   0.0000000E+00   0.0000000E+00   0.0000000E+00
   0.2938926E+01   0.4045085E+01  -0.6363636E+01   0.0000000E+00   0.0000000E+00   0.0000000E+00   0.0000000E+00
   0.2938926E+01   0.4045085E+01  -0.5454545E+01   0.0000000E+00   0.0000000E+00   0.0000000E+00   0.0000000E+00
   0.2938926E+01   0.4045085E+01  -0.4545455E+01   0.0000000E+00   0.0000000E+00   0.0000000E+00   0.0000000E+00
   0.2938926E+01   0.4045085E+01  -0.3636364E+01   0.0000000E+00   0.0000000E+00   0.0000000E+00   0.0000000E+00
   0.2938926E+01   0.4045085E+01  -0.2727273E+01   0.0000000E+00   0.0000000E+00   0.0000000E+00   0.0000000E+00
   0.2938926E+01   0.4045085E+01  -0.1818182E+01   0.0000000E+00   0.0000000E+00   0.0000000E+00   0.0000000E+00
   0.2938926E+01   0.4045085E+01  -0.9090910E+00   0.0000000E+00   0.0000000E+00   0.0000000E+00   0.0000000E+00
   0.2938926E+01   0.4045085E+01   0.0000000E+00   0.0000000E+00   0.0000000E+00   0.0000000E+00   0.0000000E+00
   0.3492005E+01   0.3492005E+01  -0.1000000E+02   0.0000000E+00   0.0000000E+00   0.0000000E+00   0.0000000E+00
   0.3492005E+01   0.3492005E+01  -0.9090909E+01   0.0000000E+00   0.0000000E+00   0.0000000E+00   0.0000000E+00
   0.3492005E+01   0.3492005E+01  -0.8181818E+01   0.0000000E+00   0.0000000E+00   0.0000000E+00   0.0000000E+00
   0.3492005E+01   0.3492005E+01  -0.7272727E+01   0.0000000E+00   0.0000000E+00   0.0000000E+00   0.0000000E+00
   0.3492005E+01   0.3492005E+01  -0.6363636E+01   0.0000000E+00   0.0000000E+00   0.0000000E+00   0.0000000E+00
   0.3492005E+01   0.3492005E+01  -0.5454545E+01   0.0000000E+00   0.0000000E+00   0.0000000E+00   0.0000000E+00
   0.3492005E+01   0.3492005E+01  -0.4545455E+01   0.0000000E+00   0.0000000E+00   0.0000000E+00   0.0000000E+00
   0.3492005E+01   0.3492005E+01  -0.3636364E+01   0.0000000E+00   0.0000000E+00   0.0000000E+00   0.0000000E+00
   0.3492005E+01   0.3492005E+01  -0.2727273E+01   0.0000000E+00   0.0000000E+00   0.0000000E+00   0.0000000E+00
   0.3492005E+01   0.3492005E+01  -0.1818182E+01   0.0000000E+00   0.0000000E+00   0.0000000E+00   0.0000000E+00
   0.3492005E+01   0.3492005E+01  -0.9090910E+00   0.0000000E+00   0.0000000E+00   0.0000000E+00   0.0000000E+00
   0.3492005E+01   0.3492005E+01   0.0000000E+00   0.0000000E+00   0.0000000E+00   0.0000000E+00   0.0000000E+00
   0.4045085E+01   0.2938926E+01  -0.1000000E+02   0.0000000E+00   0.0000000E+00   0.0000000E+00   0.0000000E+00
   0.4045085E+01   0.2938926E+01  -0.9090909E+01   0.0000000E+00   0.0000000E+00   0.0000000E+00   0.0000000E+00
   0.4045085E+01   0.2938926E+01  -0.8181818E+01   0.0000000E+00   0.0000000E+00   0.0000000E+00   0.0000000E+00
   0.4045085E+01   0.2938926E+01  -0.7272727E+01   0.0000000E+00   0.0000000E+00   0.0000000E+00   0.0000000E+00
   0.4045085E+01   0.2938926E+01  -0.6363636E+01   0.0000000E+00   0.0000000E+00   0.0000000E+00   0.0000000E+00
   0.4045085E+01   0.2938926E+01  -0.5454545E+01   0.0000000E+00   0.0000000E+00   0.0000000E+00   0.0000000E+00
   0.4045085E+01   0.2938926E+01  -0.4545455E+01   0.0000000E+00   0.0000000E+00   0.0000000E+00   0.0000000E+00
   0.4045085E+01   0.2938926E+01  -0.3636364E+01   0.0000000E+00   0.0000000E+00   0.0000000E+00   0.0000000E+00
   0.4045085E+01   0.2938926E+01  -0.2727273E+01   0.0000000E+00   0.0000000E+00   0.0000000E+00   0.0000000E+00
   0.4045085E+01   0.2938926E+01  -0.1818182E+01   0.0000000E+00   0.0000000E+00   0.0000000E+00   0.0000000E+00
   0.4045085E+01   0.2938926E+01  -0.9090910E+00   0.0000000E+00   0.0000000E+00   0.0000000E+00   0.0000000E+00
   0.4045085E+01   0.2938926E+01   0.0000000E+00   0.0000000E+00   0.0000000E+00   0.0000000E+00   0.0000000E+00
   0.1545085E+01   0.4755283E+01  -0.1000000E+02   0.0000000E+00   0.0000000E+00   0.0000000E+00   0.0000000E+00
   0.1545085E+01   0.4755283E+01  -0.9090909E+01   0.0000000E+00   0.0000000E+00   0.0000000E+00   0.0000000E+00
   0.1545085E+01   0.4755283E+01  -0.8181818E+01   0.0000000E+00   0.0000000E+00   0.0000000E+00   0.0000000E+00
   0.1545085E+01   0.4755283E+01  -0.7272727E+01   0.0000000E+00   0.0000000E+00   0.0000000E+00   0.0000000E+00
   0.1545085E+01   0.4755283E+01  -0.6363636E+01   0.0000000E+00   0.0000000E+00   0.0000000E+00   0.0000000E+00
   0.1545085E+01   0.4755283E+01  -0.5454545E+01   0.0000000E+00   0.0000000E+00   0.0000000E+00   0.0000000E+00
   0.1545085E+01   0.4755283E+01  -0.4545455E+01   0.0000000E+00   0.0000000E+00   0.0000000E+00   0.0000000E+00
   0.1545085E+01   0.4755283E+01  -0.3636364E+01   0.0000000E+00   0.0000000E+00   0.0000000E+00   0.0000000E+00
   0.1545085E+01   0.4755283E+01  -0.2727273E+01   0.0000000E+00   0.0000000E+00   0.0000000E+00   0.0000000E+00
   0.1545085E+01   0.4755283E+01  -0.1818182E+01   0.0000000E+00   0.0000000E+00   0.0000000E+00   0.0000000E+00
   0.1545085E+01   0.4755283E+01  -0.9090910E+00   0.0000000E+00   0.0000000E+00   0.0000000E+00   0.0000000E+00
   0.1545085E+01   0.4755283E+01   0.0000000E+00   0.0000000E+00   0.0000000E+00   0.0000000E+00   0.0000000E+00
   0.2242005E+01   0.4400184E+01  -0.1000000E+02   0.0000000E+00   0.0000000E+00   0.0000000E+00   0.0000000E+00
   0.2242005E+01   0.4400184E+01  -0.9090909E+01   0.0000000E+00   0.0000000E+00   0.0000000E+00   0.0000000E+00
   0.2242005E+01   0.4400184E+01  -0.8181818E+01   0.0000000E+00   0.0000000E+00   0.0000000E+00   0.0000000E+00
   0.2242005E+01   0.4400184E+01  -0.7272727E+01   0.0000000E+00   0.0000000E+00   0.0000000E+00   0.0000000E+00
   0.2242005E+01   0.4400184E+01  -0.6363636E+01   0.0000000E+00   0.0000000E+00   0.0000000E+00   0.0000000E+00
   0.2242005E+01   0.4400184E+01  -0.5454545E+01   0.0000000E+00   0.0000000E+00   0.0000000E+00   0.0000000E+00
   0.2242005E+01   0.4400184E+01  -0.4545455E+01   0.0000000E+00   0.0000000E+00   0.0000000E+00   0.0000000E+00
   0.2242005E+01   0.4400184E+01  -0.3636364E+01   0.0000000E+00   0.0000000E+00   0.0000000E+00   0.0000000E+00
   0.2242005E+01   0.4400184E+01  -0.2727273E+01   0.0000000E+00   0.0000000E+00   0.0000000E+00   0.0000000E+00
   0.2242005E+01   0.4400184E+01  -0.1818182E+01   0.0000000E+00   0.0000000E+00   0.0000000E+00   0.0000000E+00
   0.2242005E+01   0.4400184E+01  -0.9090910E+00   0.0000000E+00   0.0000000E+00   0.0000000E+00   0.0000000E+00
   0.2242005E+01   0.4400184E+01   0.0000000E+00   0.0000000E+00   0.0000000E+00   0.0000000E+00   0.0000000E+00
   0.2938926E+01   0.4045085E+01  -0.1000000E+02   0.0000000E+00   0.0000000E+00   0.0000000E+00   0.0000000E+00
   0.2938926E+01   0.4045085E+01  -0.9090909E+01   0.0000000E+00   0.0000000E+00   0.0000000E+00   0.0000000E+00
   0.2938926E+01   0.4045085E+01  -0.8181818E+01   0.0000000E+00   0.0000000E+00   0.0000000E+00   0.0000000E+00
   0.2938926E+01   0.4045085E+01  -0.7272727E+01   0.0000000E+00   0.0000000E+00   0.0000000E+00   0.0000000E+00
   0.2938926E+01   0.4045085E+01  -0.6363636E+01   0.0000000E+00   0.0000000E+00   0.0000000E+00   0.0000000E+00
   0.2938926E+01   0.4045085E+01  -0.5454545E+01   0.0000000E+00   0.0000000E+00   0.0000000E+00   0.0000000E+00
   0.2938926E+01   0.4045085E+01  -0.4545455E+01   0.0000000E+00   0.0000000E+00   0.0000000E+00   0.0000000E+00
   0.2938926E+01   0.4045085E+01  -0.3636364E+01   0.0000000E+00   0.0000000E+00   0.0000000E+00   0.0000000E+00
   0.2938926E+01   0.4045085E+01  -0.2727273E+01   0.0000000E+00   0.0000000E+00   0.0000000E+00   0.0000000E+00
   0.2938926E+01   0.4045085E+01  -0.1818182E+01   0.0000000E+00   0.0000000E+00   0.0000000E+00   0.0000000E+00
   0.2938926E+01   0.4045085E+01  -0.9090910E+00   0.0000000E+00   0.0000000E+00   0.0000000E+00   0.0000000E+00
   0.2938926E+01   0.4045085E+01   0.0000000E+00   0.0000000E+00   0.0000000E+00   0.0000000E+00   0.0000000E+00
   0.0000000E+00   0.5000000E+01  -0.1000000E+02   0.0000000E+00   0.0000000E+00   0.0000000E+00   0.0000000E+00
   0.0000000E+00   0.5000000E+01  -0.9090909E+01   0.0000000E+00   0.0000000E+00   0.0000000E+00   0.0000000E+00
   0.0000000E+00   0.5000000E+01  -0.8181818E+01   0.0000000E+00   0.0000000E+00   0.0000000E+00   0.0000000E+00
   0.0000000E+00   0.5000000E+01  -0.7272727E+01   0.0000000E+00   0.0000000E+00   0.0000000E+00   0.0000000E+00
   0.0000000E+00   0.5000000E+01  -0.6363636E+01   0.0000000E+00   0.0000000E+00   0.0000000E+00   0.0000000E+00
   0.0000000E+00   0.5000000E+01  -0.5454545E+01   0.0000000E+00   0.0000000E+00   0.0000000E+00   0.0000000E+00
   0.0000000E+00   0.5000000E+01  -0.4545455E+01   0.0000000E+00   0.0000000E+00   0.0000000E+00   0.0000000E+00
   0.0000000E+00   0.5000000E+01  -0.3636364E+01   0.0000000E+00   0.0000000E+00   0.0000000E+00   0.0000000E+00
   0.0000000E+00   0.5000000E+01  -0.2727273E+01   0.0000000E+00   0.0000000E+00   0.0000000E+00   0.0000000E+00
   0.0000000E+00   0.5000000E+01  -0.1818182E+01   0.0000000E+00   0.0000000E+00   0.0000000E+00   0.0000000E+00
   0.0000000E+00   0.5000000E+01  -0.9090910E+00   0.0000000E+00   0.0000000E+00   0.0000000E+00   0.0000000E+00
   0.0000000E+00   0.5000000E+01   0.0000000E+00   0.0000000E+00   0.0000000E+00   0.0000000E+00   0.0000000E+00
   0.7725425E+00   0.4877642E+01  -0.1000000E+02   0.0000000E+00   0.0000000E+00   0.0000000E+00   0.0000000E+00
   0.7725425E+00   0.4877642E+01  -0.9090909E+01   0.0000000E+00   0.0000000E+00   0.0000000E+00   0.0000000E+00
   0.7725425E+00   0.4877642E+01  -0.8181818E+01   0.0000000E+00   0.0000000E+00   0.0000000E+00   0.0000000E+00
   0.7725425E+00   0.4877642E+01  -0.7272727E+01   0.0000000E+00   0.0000000E+00   0.0000000E+00   0.0000000E+00
   0.7725425E+00   0.4877642E+01  -0.6363636E+01   0.0000000E+00   0.0000000E+00   0.0000000E+00   0.0000000E+00
   0.7725425E+00   0.4877642E+01  -0.5454545E+01   0.0000000E+00   0.0000000E+00   0.0000000E+00   0.0000000E+00
   0.7725425E+00   0.4877642E+01  -0.4545455E+01   0.0000000E+00   0.0000000E+00   0.0000000E+00   0.0000000E+00
   0.7725425E+00   0.4877642E+01  -0.3636364E+01   0.0000000E+00   0.0000000E+00   0.0000000E+00   0.0000000E+00
   0.7725425E+00   0.4877642E+01  -0.2727273E+01   0.0000000E+00   0.0000000E+00   0.0000000E+00   0.0000000E+00
   0.7725425E+00   0.4877642E+01  -0.1818182E+01   0.0000000E+00   0.0000000E+00   0.0000000E+00   0.0000000E+00
   0.7725425E+00   0.4877642E+01  -0.9090910E+00   0.0000000E+00   0.0000000E+00   0.0000000E+00   0.0000000E+00
   0.7725425E+00   0.4877642E+01   0.0000000E+00   0.0000000E+00   0.0000000E+00   0.0000000E+00   0.0000000E+00
   0.1545085E+01   0.4755283E+01  -0.1000000E+02   0.0000000E+00   0.0000000E+00   0.0000000E+00   0.0000000E+00
   0.1545085E+01   0.4755283E+01  -0.9090909E+01   0.0000000E+00   0.0000000E+00   0.0000000E+00   0.0000000E+00
   0.1545085E+01   0.4755283E+01  -0.8181818E+01   0.0000000E+00   0.0000000E+00   0.0000000E+00   0.0000000E+00
   0.1545085E+01   0.4755283E+01  -0.7272727E+01   0.0000000E+00   0.0000000E+00   0.0000000E+00   0.0000000E+00
   0.1545085E+01   0.4755283E+01  -0.6363636E+01   0.0000000E+00   0.0000000E+00   0.0000000E+00   0.0000000E+00
   0.1545085E+01   0.4755283E+01  -0.5454545E+01   0.0000000E+00   0.0000000E+00   0.0000000E+00   0.0000000E+00
   0.1545085E+01   0.4755283E+01  -0.4545455E+01   0.0000000E+00   0.0000000E+00   0.0000000E+00   0.0000000E+00
   0.1545085E+01   0.4755283E+01  -0.3636364E+01   0.0000000E+00   0.0000000E+00   0.0000000E+00   0.0000000E+00
   0.1545085E+01   0.4755283E+01  -0.2727273E+01   0.0000000E+00   0.0000000E+00   0.0000000E+00   0.0000000E+00
   0.1545085E+01   0.4755283E+01  -0.1818182E+01   0.0000000E+00   0.0000000E+00   0.0000000E+00   0.0000000E+00
   0.1545085E+01   0.4755283E+01  -0.9090910E+00   0.0000000E+00   0.0000000E+00   0.0000000E+00   0.0000000E+00
   0.1545085E+01   0.4755283E+01   0.0000000E+00   0.0000000E+00   0.0000000E+00   0.0000000E+00   0.0000000E+00
  -0.1545085E+01   0.4755283E+01  -0.1000000E+02   0.0000000E+00   0.0000000E+00   0.0000000E+00   0.0000000E+00
  -0.1545085E+01   0.4755283E+01  -0.9090909E+01   0.0000000E+00   0.0000000E+00   0.0000000E+00   0.0000000E+00
  -0.1545085E+01   0.4755283E+01  -0.8181818E+01   0.0000000E+00   0.0000000E+00   0.0000000E+00   0.0000000E+00
  -0.1545085E+01   0.4755283E+01  -0.7272727E+01   0.0000000E+00   0.0000000E+00   0.0000000E+00   0.0000000E+00
  -0.1545085E+01   0.4755283E+01  -0.6363636E+01   0.0000000E+00   0.0000000E+00   0.0000000E+00   0.0000000E+00
  -0.1545085E+01   0.4755283E+01  -0.5454545E+01   0.0000000E+00   0.0000000E+00   0.0000000E+00   0.0000000E+00
  -0.1545085E+01   0.4755283E+01  -0.4545455E+01   0.0000000E+00   0.0000000E+00   0.0000000E+00   0.0000000E+00
  -0.1545085E+01   0.4755283E+01  -0.3636364E+01   0.0000000E+00   0.0000000E+00   0.0000000E+00   0.0000000E+00
  -0.1545085E+01   0.4755283E+01  -0.2727273E+01   0.0000000E+00   0.0000000E+00   0.0000000E+00   0.0000000E+00
  -0.1545085E+01   0.4755283E+01  -0.1818182E+01   0.0000000E+00   0.0000000E+00   0.0000000E+00   0.0000000E+00
  -0.1545085E+01   0.4755283E+01  -0.9090910E+00   0.0000000E+00   0.0000000E+00   0.0000000E+00   0.0000000E+00
  -0.1545085E+01   0.4755283E+01   0.0000000E+00   0.0000000E+00   0.0000000E+00   0.0000000E+00   0.0000000E+00
  -0.7725425E+00   0.4877642E+01  -0.1000000E+02   0.0000000E+00   0.0000000E+00   0.0000000E+00   0.0000000E+00
  -0.7725425E+00   0.4877642E+01  -0.9090909E+01   0.0000000E+00   0.0000000E+00   0.0000000E+00   0.0000000E+00
  -0.7725425E+00   0.4877642E+01  -0.8181818E+01   0.0000000E+00   0.0000000E+00   0.0000000E+00   0.0000000E+00
  -0.7725425E+00   0.4877642E+01  -0.7272727E+01   0.0000000E+00   0.0000000E+00   0.0000000E+00   0.0000000E+00
  -0.7725425E+00   0.4877642E+01  -0.6363636E+01   0.0000000E+00   0.0000000E+00   0.0000000E+00   0.0000000E+00
  -0.7725425E+00   0.4877642E+01  -0.5454545E+01   0.0000000E+00   0.0000000E+00   0.0000000E+00   0.0000000E+00
  -0.7725425E+00   0.4877642E+01  -0.4545455E+01   0.0000000E+00   0.0000000E+00   0.0000000E+00   0.0000000E+00
  -0.7725425E+00   0.4877642E+01  -0.3636364E+01   0.0000000E+00   0.0000000E+00   0.0000000E+00   0.0000000E+00
  -0.7725425E+00   0.4877642E+01  -0.2727273E+01   0.0000000E+00   0.0000000E+00   0.0000000E+00   0.0000000E+00
  -0.7725425E+00   0.4877642E+01  -0.1818182E+01   0.0000000E+00   0.0000000E+00   0.0000000E+00   0.0000000E+00
  -0.7725425E+00   0.4877642E+01  -0.9090910E+00   0.0000000E+00   0.0000000E+00   0.0000000E+00   0.0000000E+00
  -0.7725425E+00   0.4877642E+01   0.0000000E+00   0.0000000E+00   0.0000000E+00   0.0000000E+00   0.0000000E+00
   0.0000000E+00   0.5000000E+01  -0.1000000E+02   0.0000000E+00   0.0000000E+00   0.0000000E+00   0.0000000E+00
   0.0000000E+00   0.5000000E+01  -0.9090909E+01   0.0000000E+00   0.0000000E+00   0.0000000E+00   0.0000000E+00
   0.0000000E+00   0.5000000E+01  -0.8181818E+01   0.0000000E+00   0.0000000E+00   0.0000000E+00   0.0000000E+00
   0.0000000E+00   0.5000000E+01  -0.7272727E+01   0.0000000E+00   0.0000000E+00   0.0000000E+00   0.0000000E+00
   0.0000000E+00   0.5000000E+01  -0.6363636E+01   0.0000000E+00   0.0000000E+00   0.0000000E+00   0.0000000E+00
   0.0000000E+00   0.5000000E+01  -0.5454545E+01   0.0000000E+00   0.0000000E+00   0.0000000E+00   0.0000000E+00
   0.0000000E+00   0.5000000E+01  -0.4545455E+01   0.0000000E+00   0.0000000E+00   0.0000000E+00   0.0000000E+00
   0.0000000E+00   0.5000000E+01  -0.3636364E+01   0.0000000E+00   0.0000000E+00   0.0000000E+00   0.0000000E+00
   0.0000000E+00   0.5000000E+01  -0.2727273E+01   0.0000000E+00   0.0000000E+00   0.0000000E+00   0.0000000E+00
   0.0000000E+00   0.5000000E+01  -0.1818182E+01   0.0000000E+00   0.0000000E+00   0.0000000E+00   0.0000000E+00
   0.0000000E+00   0.5000000E+01  -0.9090910E+00   0.0000000E+00   0.0000000E+00   0.0000000E+00   0.0000000E+00
   0.0000000E+00   0.5000000E+01   0.0000000E+00   0.0000000E+00   0.0000000E+00   0.0000000E+00   0.0000000E+00
  -0.2938926E+01   0.4045085E+01  -0.1000000E+02   0.0000000E+00   0.0000000E+00   0.0000000E+00   0.0000000E+00
  -0.2938926E+01   0.4045085E+01  -0.9090909E+01   0.0000000E+00   0.0000000E+00   0.0000000E+00   0.0000000E+00
  -0.2938926E+01   0.4045085E+01  -0.8181818E+01   0.0000000E+00   0.0000000E+00   0.0000000E+00   0.0000000E+00
  -0.2938926E+01   0.4045085E+01  -0.7272727E+01   0.0000000E+00   0.0000000E+00   0.0000000E+00   0.0000000E+00
  -0.2938926E+01   0.4045085E+01  -0.6363636E+01   0.0000000E+00   0.0000000E+00   0.0000000E+00   0.0000000E+00
  -0.2938926E+01   0.4045085E+01  -0.5454545E+01   0.0000000E+00   0.0000000E+00   0.0000000E+00   0.0000000E+00
  -0.2938926E+01   0.4045085E+01  -0.4545455E+01   0.0000000E+00   0.0000000E+00   0.0000000E+00   0.0000000E+00
  -0.2938926E+01   0.4045085E+01  -0.3636364E+01   0.0000000E+00   0.0000000E+00   0.0000000E+00   0.0000000E+00
  -0.2938926E+01   0.4045085E+01  -0.2727273E+01   0.0000000E+00   0.0000000E+00   0.0000000E+00   0.0000000E+00
  -0.2938926E+01   0.4045085E+01  -0.1818182E+01   0.0000000E+00   0.0000000E+00   0.0000000E+00   0.0000000E+00
  -0.2938926E+01   0.4045085E+01  -0.9090910E+00   0.0000000E+00   0.0000000E+00   0.0000000E+00   0.0000000E+00
  -0.2938926E+01   0.4045085E+01   0.0000000E+00   0.0000000E+00   0.0000000E+00   0.0000000E+00   0.0000000E+00
  -0.2242005E+01   0.4400184E+01  -0.1000000E+02   0.0000000E+00   0.0000000E+00   0.0000000E+00   0.0000000E+00
  -0.2242005E+01   0.4400184E+01  -0.9090909E+01   0.0000000E+00   0.0000000E+00   0.0000000E+00   0.0000000E+00
  -0.2242005E+01   0.4400184E+01  -0.8181818E+01   0.0000000E+00   0.0000000E+00   0.0000000E+00   0.0000000E+00
  -0.2242005E+01   0.4400184E+01  -0.7272727E+01   0.0000000E+00   0.0000000E+00   0.0000000E+00   0.0000000E+00
  -0.2242005E+01   0.4400184E+01  -0.6363636E+01   0.0000000E+00   0.0000000E+00   0.0000000E+00   0.0000000E+00
  -0.2242005E+01   0.4400184E+01  -0.5454545E+01   0.0000000E+00   0.0000000E+00   0.0000000E+00   0.0000000E+00
  -0.2242005E+01   0.4400184E+01  -0.4545455E+01   0.0000000E+00   0.0000000E+00   0.0000000E+00   0.0000000E+00
  -0.2242005E+01   0.4400184E+01  -0.3636364E+01   0.0000000E+00   0.0000000E+00   0.0000000E+00   0.0000000E+00
  -0.2242005E+01   0.4400184E+01  -0.2727273E+01   0.0000000E+00   0.0000000E+00   0.0000000E+00   0.0000000E+00
  -0.2242005E+01   0.4400184E+01  -0.1818182E+01   0.0000000E+00   0.0000000E+00   0.0000000E+00   0.0000000E+00
  -0.2242005E+01   0.4400184E+01  -0.9090910E+00   0.0000000E+00   0.0000000E+00   0.0000000E+00   0.0000000E+00
  -0.2242005E+01   0.4400184E+01   0.0000000E+00   0.0000000E+00   0.0000000E+00   0.0000000E+00   0.0000000E+00
  -0.1545085E+01   0.4755283E+01  -0.1000000E+02   0.0000000E+00   0.0000000E+00   0.0000000E+00   0.0000000E+00
  -0.1545085E+01   0.4755283E+01  -0.9090909E+01   0.0000000E+00   0.0000000E+00   0.0000000E+00   0.0000000E+00
  -0.1545085E+01   0.4755283E+01  -0.8181818E+01   0.0000000E+00   0.0000000E+00   0.0000000E+00   0.0000000E+00
  -0.1545085E+01   0.4755283E+01  -0.7272727E+01   0.0000000E+00   0.0000000E+00   0.0000000E+00   0.0000000E+00
  -0.1545085E+01   0.4755283E+01  -0.6363636E+01   0.0000000E+00   0.0000000E+00   0.0000000E+00   0.0000000E+00
  -0.1545085E+01   0.4755283E+01  -0.5454545E+01   0.0000000E+00   0.0000000E+00   0.0000000E+00   0.0000000E+00
  -0.1545085E+01   0.4755283E+01  -0.4545455E+01   0.0000000E+00   0.0000000E+00   0.0000000E+00   0.0000000E+00
  -0.1545085E+01   0.4755283E+01  -0.3636364E+01   0.0000000E+00   0.0000000E+00   0.0000000E+00   0.0000000E+00
  -0.1545085E+01   0.4755283E+01  -0.2727273E+01   0.0000000E+00   0.0000000E+00   0.0000000E+00   0.0000000E+00
  -0.1545085E+01   0.4755283E+01  -0.1818182E+01   0.0000000E+00   0.0000000E+00   0.0000000E+00   0.0000000E+00
  -0.1545085E+01   0.4755283E+01  -0.9090910E+00   0.0000000E+00   0.0000000E+00   0.0000000E+00   0.0000000E+00
  -0.1545085E+01   0.4755283E+01   0.0000000E+00   0.0000000E+00   0.0000000E+00   0.0000000E+00   0.0000000E+00
  -0.4045085E+01   0.2938926E+01  -0.1000000E+02   0.0000000E+00   0.0000000E+00   0.0000000E+00   0.0000000E+00
  -0.4045085E+01   0.2938926E+01  -0.9090909E+01   0.0000000E+00   0.0000000E+00   0.0000000E+00   0.0000000E+00
  -0.4045085E+01   0.2938926E+01  -0.8181818E+01   0.0000000E+00   0.0000000E+00   0.0000000E+00   0.0000000E+00
  -0.4045085E+01   0.2938926E+01  -0.7272727E+01   0.0000000E+00   0.0000000E+00   0.0000000E+00   0.0000000E+00
  -0.4045085E+01   0.2938926E+01  -0.6363636E+01   0.0000000E+00   0.0000000E+00   0.0000000E+00   0.0000000E+00
  -0.4045085E+01   0.2938926E+01  -0.5454545E+01   0.0000000E+00   0.0000000E+00   0.0000000E+00   0.0000000E+00
  -0.4045085E+01   0.2938926E+01  -0.4545455E+01   0.0000000E+00   0.0000000E+00   0.0000000E+00   0.0000000E+00
  -0.4045085E+01   0.2938926E+01  -0.3636364E+01   0.0000000E+00   0.0000000E+00   0.0000000E+00   0.0000000E+00
  -0.4045085E+01   0.2938926E+01  -0.2727273E+01   0.0000000E+00   0.0000000E+00   0.0000000E+00   0.0000000E+00
  -0.4045085E+01   0.2938926E+01  -0.1818182E+01   0.0000000E+00   0.0000000E+00   0.0000000E+00   0.0000000E+00