VARIABLES="Theta (rad)" "ABS(HKochin)" "ANGLE(HKochin)"
Zone t="Diffraction - beta =  30.000 at frequency  1.0000 rad/s",I=   181,F=POINT
 -0.3141593E+01  0.9434450E+01  0.3065556E+01
 -0.3106686E+01  0.9514893E+01  0.3067377E+01
 -0.3071780E+01  0.9591385E+01  0.3069075E+01
 -0.3036873E+01  0.9663749E+01  0.3070647E+01
 -0.3001966E+01  0.9731997E+01  0.3072101E+01
 -0.2967060E+01  0.9795980E+01  0.3073436E+01
 -0.2932153E+01  0.9855599E+01  0.3074656E+01
 -0.2897247E+01  0.9910722E+01  0.3075760E+01
 -0.2862340E+01  0.9961263E+01  0.3076750E+01
 -0.2827433E+01  0.1000711E+02  0.3077628E+01
 -0.2792527E+01  0.1004817E+02  0.3078395E+01
 -0.2757620E+01  0.1008432E+02  0.3079050E+01
 -0.2722714E+01  0.1011546E+02  0.3079595E+01
 -0.2687807E+01  0.1014149E+02  0.3080029E+01
 -0.2652900E+01  0.1016230E+02  0.3080352E+01
 -0.2617994E+01  0.1017781E+02  0.3080566E+01
 -0.2583087E+01  0.1018791E+02  0.3080667E+01
 -0.2548181E+01  0.1019253E+02  0.3080657E+01
 -0.2513274E+01  0.1019157E+02  0.3080534E+01
 -0.2478368E+01  0.1018499E+02  0.3080297E+01
 -0.2443461E+01  0.1017270E+02  0.3079947E+01
 -0.2408554E+01  0.1015465E+02  0.3079479E+01
 -0.2373648E+01  0.1013081E+02  0.3078894E+01
 -0.2338741E+01  0.1010112E+02  0.3078190E+01
 -0.2303835E+01  0.1006558E+02  0.3077363E+01
 -0.2268928E+01  0.1002415E+02  0.3076414E+01
 -0.2234021E+01  0.9976836E+01  0.3075338E+01
 -0.2199115E+01  0.9923662E+01  0.3074132E+01
 -0.2164208E+01  0.9864612E+01  0.3072794E+01
 -0.2129302E+01  0.9799753E+01  0.3071321E+01
 -0.2094395E+01  0.9729098E+01  0.3069709E+01
 -0.2059489E+01  0.9652716E+01  0.3067953E+01
 -0.2024582E+01  0.9570668E+01  0.3066050E+01
 -0.1989675E+01  0.9483037E+01  0.3063994E+01
 -0.1954769E+01  0.9389914E+01  0.3061781E+01
 -0.1919862E+01  0.9291359E+01  0.3059404E+01
 -0.1884956E+01  0.9187519E+01  0.3056858E+01
 -0.1850049E+01  0.9078515E+01  0.3054136E+01
 -0.1815143E+01  0.8964455E+01  0.3051230E+01
 -0.1780236E+01  0.8845490E+01  0.3048133E+01
 -0.1745329E+01  0.8721735E+01  0.3044834E+01
 -0.1710423E+01  0.8593405E+01  0.3041328E+01
 -0.1675516E+01  0.8460627E+01  0.3037601E+01
 -0.1640610E+01  0.8323546E+01  0.3033643E+01
 -0.1605703E+01  0.8182457E+01  0.3029444E+01
 -0.1570796E+01  0.8037360E+01  0.3024985E+01
 -0.1535890E+01  0.7888530E+01  0.3020254E+01
 -0.1500983E+01  0.7736316E+01  0.3015242E+01
 -0.1466077E+01  0.7580708E+01  0.3009922E+01
 -0.1431170E+01  0.7421987E+01  0.3004278E+01
 -0.1396263E+01  0.7260360E+01  0.2998291E+01
 -0.1361357E+01  0.7096111E+01  0.2991937E+01
 -0.1326450E+01  0.6929387E+01  0.2985191E+01
 -0.1291544E+01  0.6760462E+01  0.2978025E+01
 -0.1256637E+01  0.6589560E+01  0.2970409E+01
 -0.1221731E+01  0.6416929E+01  0.2962311E+01
 -0.1186824E+01  0.6242814E+01  0.2953692E+01
 -0.1151917E+01  0.6067458E+01  0.2944512E+01
 -0.1117011E+01  0.5891131E+01  0.2934729E+01
 -0.1082104E+01  0.5714094E+01  0.2924290E+01
 -0.1047198E+01  0.5536632E+01  0.2913144E+01
 -0.1012291E+01  0.5359007E+01  0.2901227E+01
 -0.9773844E+00  0.5181521E+01  0.2888475E+01
 -0.9424778E+00  0.5004471E+01  0.2874817E+01
 -0.9075713E+00  0.4828168E+01  0.2860167E+01
 -0.8726646E+00  0.4652924E+01  0.2844438E+01
 -0.8377581E+00  0.4479088E+01  0.2827532E+01
 -0.8028514E+00  0.4306998E+01  0.2809339E+01
 -0.7679449E+00  0.4137018E+01  0.2789740E+01
 -0.7330383E+00  0.3969527E+01  0.2768607E+01
 -0.6981317E+00  0.3804931E+01  0.2745796E+01
 -0.6632251E+00  0.3643647E+01  0.2721157E+01
 -0.6283185E+00  0.3486106E+01  0.2694526E+01
 -0.5934120E+00  0.3332787E+01  0.2665731E+01
 -0.5585054E+00  0.3184171E+01  0.2634593E+01
 -0.5235988E+00  0.3040761E+01  0.2600935E+01
 -0.4886922E+00  0.2903113E+01  0.2564573E+01
 -0.4537856E+00  0.2771759E+01  0.2525349E+01
 -0.4188790E+00  0.2647272E+01  0.2483119E+01
 -0.3839725E+00  0.2530223E+01  0.2437782E+01
 -0.3490659E+00  0.2421168E+01  0.2389290E+01
 -0.3141593E+00  0.2320659E+01  0.2337670E+01
 -0.2792527E+00  0.2229166E+01  0.2283046E+01
 -0.2443461E+00  0.2147095E+01  0.2225655E+01
 -0.2094395E+00  0.2074781E+01  0.2165868E+01
 -0.1745329E+00  0.2012365E+01  0.2104165E+01
 -0.1396263E+00  0.1959883E+01  0.2041183E+01
 -0.1047198E+00  0.1917135E+01  0.1977625E+01
 -0.6981317E-01  0.1883759E+01  0.1914267E+01
 -0.3490658E-01  0.1859217E+01  0.1851922E+01
  0.0000000E+00  0.1842792E+01  0.1791412E+01
  0.3490658E-01  0.1833589E+01  0.1733374E+01
  0.6981317E-01  0.1830665E+01  0.1678385E+01
  0.1047198E+00  0.1832981E+01  0.1626994E+01
  0.1396263E+00  0.1839503E+01  0.1579521E+01
  0.1745329E+00  0.1849209E+01  0.1536172E+01
  0.2094395E+00  0.1861114E+01  0.1497143E+01
  0.2443461E+00  0.1874323E+01  0.1462461E+01
  0.2792527E+00  0.1887986E+01  0.1432125E+01
  0.3141593E+00  0.1901375E+01  0.1406098E+01
  0.3490659E+00  0.1913870E+01  0.1384293E+01
  0.3839725E+00  0.1924905E+01  0.1366658E+01
  0.4188790E+00  0.1934065E+01  0.1353100E+01
  0.4537856E+00  0.1941002E+01  0.1343567E+01
  0.4886922E+00  0.1945471E+01  0.1338009E+01
  0.5235988E+00  0.1947327E+01  0.1336384E+01
  0.5585054E+00  0.1946521E+01  0.1338705E+01
  0.5934120E+00  0.1943086E+01  0.1344994E+01
  0.6283185E+00  0.1937178E+01  0.1355283E+01
  0.6632251E+00  0.1929042E+01  0.1369640E+01
  0.6981317E+00  0.1919012E+01  0.1388131E+01
  0.7330383E+00  0.1907547E+01  0.1410864E+01
  0.7679449E+00  0.1895201E+01  0.1437899E+01
  0.8028514E+00  0.1882628E+01  0.1469331E+01
  0.8377581E+00  0.1870613E+01  0.1505202E+01
  0.8726646E+00  0.1860014E+01  0.1545513E+01
  0.9075713E+00  0.1851801E+01  0.1590194E+01
  0.9424778E+00  0.1846988E+01  0.1639091E+01
  0.9773844E+00  0.1846676E+01  0.1691929E+01
  0.1012291E+01  0.1851941E+01  0.1748321E+01
  0.1047198E+01  0.1863855E+01  0.1807739E+01
  0.1082104E+01  0.1883403E+01  0.1869502E+01
  0.1117011E+01  0.1911459E+01  0.1932905E+01
  0.1151917E+01  0.1948723E+01  0.1997090E+01
  0.1186824E+01  0.1995707E+01  0.2061239E+01
  0.1221731E+01  0.2052721E+01  0.2124541E+01
  0.1256637E+01  0.2119861E+01  0.2186288E+01
  0.1291544E+01  0.2197029E+01  0.2245875E+01
  0.1326450E+01  0.2283944E+01  0.2302831E+01
  0.1361357E+01  0.2380200E+01  0.2356818E+01
  0.1396263E+01  0.2485249E+01  0.2407633E+01
  0.1431170E+01  0.2598591E+01  0.2455218E+01
  0.1466077E+01  0.2719481E+01  0.2499546E+01
  0.1500983E+01  0.2847347E+01  0.2540714E+01
  0.1535890E+01  0.2981488E+01  0.2578839E+01
  0.1570796E+01  0.3121353E+01  0.2614105E+01
  0.1605703E+01  0.3266136E+01  0.2646657E+01
  0.1640610E+01  0.3415478E+01  0.2676723E+01
  0.1675516E+01  0.3568595E+01  0.2704462E+01
  0.1710423E+01  0.3725043E+01  0.2730068E+01
  0.1745329E+01  0.3884266E+01  0.2753714E+01
  0.1780236E+01  0.4045839E+01  0.2775572E+01
  0.1815143E+01  0.4209274E+01  0.2795793E+01
  0.1850049E+01  0.4374166E+01  0.2814519E+01
  0.1884956E+01  0.4540106E+01  0.2831879E+01
  0.1919862E+01  0.4706740E+01  0.2847992E+01
  0.1954769E+01  0.4873724E+01  0.2862967E+01
  0.1989675E+01  0.5040737E+01  0.2876902E+01
  0.2024582E+01  0.5207483E+01  0.2889884E+01
  0.2059489E+01  0.5373696E+01  0.2901996E+01
  0.2094395E+01  0.5539111E+01  0.2913307E+01
  0.2129302E+01  0.5703510E+01  0.2923885E+01
  0.2164208E+01  0.5866655E+01  0.2933790E+01
  0.2199115E+01  0.6028382E+01  0.2943075E+01
  0.2234021E+01  0.6188470E+01  0.2951788E+01
  0.2268928E+01  0.6346781E+01  0.2959974E+01
  0.2303835E+01  0.6503161E+01  0.2967671E+01
  0.2338741E+01  0.6657458E+01  0.2974917E+01
  0.2373648E+01  0.6809556E+01  0.2981744E+01
  0.2408554E+01  0.6959336E+01  0.2988183E+01
  0.2443461E+01  0.7106696E+01  0.2994260E+01
  0.2478368E+01  0.7251552E+01  0.2999999E+01
  0.2513274E+01  0.7393802E+01  0.3005424E+01
  0.2548181E+01  0.7533367E+01  0.3010553E+01
  0.2583087E+01  0.7670177E+01  0.3015406E+01
  0.2617994E+01  0.7804174E+01  0.3020001E+01
  0.2652900E+01  0.7935270E+01  0.3024351E+01
  0.2687807E+01  0.8063435E+01  0.3028471E+01
  0.2722714E+01  0.8188587E+01  0.3032374E+01
  0.2757620E+01  0.8310683E+01  0.3036070E+01
  0.2792527E+01  0.8429652E+01  0.3039571E+01
  0.2827433E+01  0.8545450E+01  0.3042887E+01
  0.2862340E+01  0.8658010E+01  0.3046025E+01
  0.2897247E+01  0.8767299E+01  0.3048994E+01
  0.2932153E+01  0.8873214E+01  0.3051801E+01
  0.2967060E+01  0.8975728E+01  0.3054452E+01
  0.3001966E+01  0.9074710E+01  0.3056952E+01
  0.3036873E+01  0.9170195E+01  0.3059310E+01
  0.3071780E+01  0.9262045E+01  0.3061527E+01
  0.3106686E+01  0.9350105E+01  0.3063605E+01
  0.3141593E+01  0.9434455E+01  0.3065557E+01
