VARIABLES="Theta (rad)" "ABS(HKochin)" "ANGLE(HKochin)"
Zone t="Diffraction - beta =  30.000 at frequency  1.0000 rad/s",I=   181,F=POINT
 -0.3141593E+01  0.9434436E+01  0.3065556E+01
 -0.3106686E+01  0.9514884E+01  0.3067376E+01
 -0.3071780E+01  0.9591372E+01  0.3069074E+01
 -0.3036873E+01  0.9663737E+01  0.3070647E+01
 -0.3001966E+01  0.9731984E+01  0.3072100E+01
 -0.2967060E+01  0.9795966E+01  0.3073436E+01
 -0.2932153E+01  0.9855585E+01  0.3074655E+01
 -0.2897247E+01  0.9910706E+01  0.3075758E+01
 -0.2862340E+01  0.9961247E+01  0.3076749E+01
 -0.2827433E+01  0.1000710E+02  0.3077627E+01
 -0.2792527E+01  0.1004815E+02  0.3078394E+01
 -0.2757620E+01  0.1008431E+02  0.3079049E+01
 -0.2722714E+01  0.1011545E+02  0.3079594E+01
 -0.2687807E+01  0.1014147E+02  0.3080028E+01
 -0.2652900E+01  0.1016228E+02  0.3080352E+01
 -0.2617994E+01  0.1017779E+02  0.3080564E+01
 -0.2583087E+01  0.1018789E+02  0.3080666E+01
 -0.2548181E+01  0.1019251E+02  0.3080656E+01
 -0.2513274E+01  0.1019156E+02  0.3080533E+01
 -0.2478368E+01  0.1018497E+02  0.3080297E+01
 -0.2443461E+01  0.1017269E+02  0.3079946E+01
 -0.2408554E+01  0.1015464E+02  0.3079479E+01
 -0.2373648E+01  0.1013080E+02  0.3078893E+01
 -0.2338741E+01  0.1010110E+02  0.3078189E+01
 -0.2303835E+01  0.1006557E+02  0.3077363E+01
 -0.2268928E+01  0.1002413E+02  0.3076413E+01
 -0.2234021E+01  0.9976819E+01  0.3075336E+01
 -0.2199115E+01  0.9923649E+01  0.3074131E+01
 -0.2164208E+01  0.9864600E+01  0.3072794E+01
 -0.2129302E+01  0.9799734E+01  0.3071321E+01
 -0.2094395E+01  0.9729082E+01  0.3069708E+01
 -0.2059489E+01  0.9652700E+01  0.3067953E+01
 -0.2024582E+01  0.9570652E+01  0.3066049E+01
 -0.1989675E+01  0.9483027E+01  0.3063994E+01
 -0.1954769E+01  0.9389896E+01  0.3061780E+01
 -0.1919862E+01  0.9291349E+01  0.3059404E+01
 -0.1884956E+01  0.9187511E+01  0.3056858E+01
 -0.1850049E+01  0.9078505E+01  0.3054135E+01
 -0.1815143E+01  0.8964447E+01  0.3051229E+01
 -0.1780236E+01  0.8845478E+01  0.3048132E+01
 -0.1745329E+01  0.8721725E+01  0.3044834E+01
 -0.1710423E+01  0.8593400E+01  0.3041327E+01
 -0.1675516E+01  0.8460624E+01  0.3037601E+01
 -0.1640610E+01  0.8323543E+01  0.3033642E+01
 -0.1605703E+01  0.8182452E+01  0.3029444E+01
 -0.1570796E+01  0.8037349E+01  0.3024984E+01
 -0.1535890E+01  0.7888526E+01  0.3020254E+01
 -0.1500983E+01  0.7736310E+01  0.3015240E+01
 -0.1466077E+01  0.7580706E+01  0.3009921E+01
 -0.1431170E+01  0.7421984E+01  0.3004278E+01
 -0.1396263E+01  0.7260361E+01  0.2998290E+01
 -0.1361357E+01  0.7096110E+01  0.2991936E+01
 -0.1326450E+01  0.6929388E+01  0.2985189E+01
 -0.1291544E+01  0.6760461E+01  0.2978024E+01
 -0.1256637E+01  0.6589560E+01  0.2970408E+01
 -0.1221731E+01  0.6416934E+01  0.2962310E+01
 -0.1186824E+01  0.6242815E+01  0.2953691E+01
 -0.1151917E+01  0.6067462E+01  0.2944512E+01
 -0.1117011E+01  0.5891138E+01  0.2934729E+01
 -0.1082104E+01  0.5714100E+01  0.2924290E+01
 -0.1047198E+01  0.5536638E+01  0.2913144E+01
 -0.1012291E+01  0.5359013E+01  0.2901228E+01
 -0.9773844E+00  0.5181529E+01  0.2888477E+01
 -0.9424778E+00  0.5004476E+01  0.2874817E+01
 -0.9075713E+00  0.4828175E+01  0.2860167E+01
 -0.8726646E+00  0.4652935E+01  0.2844439E+01
 -0.8377581E+00  0.4479096E+01  0.2827531E+01
 -0.8028514E+00  0.4307010E+01  0.2809340E+01
 -0.7679449E+00  0.4137030E+01  0.2789741E+01
 -0.7330383E+00  0.3969542E+01  0.2768607E+01
 -0.6981317E+00  0.3804943E+01  0.2745798E+01
 -0.6632251E+00  0.3643660E+01  0.2721159E+01
 -0.6283185E+00  0.3486118E+01  0.2694527E+01
 -0.5934120E+00  0.3332799E+01  0.2665733E+01
 -0.5585054E+00  0.3184181E+01  0.2634597E+01
 -0.5235988E+00  0.3040778E+01  0.2600937E+01
 -0.4886922E+00  0.2903126E+01  0.2564576E+01
 -0.4537856E+00  0.2771773E+01  0.2525353E+01
 -0.4188790E+00  0.2647284E+01  0.2483123E+01
 -0.3839725E+00  0.2530238E+01  0.2437788E+01
 -0.3490659E+00  0.2421182E+01  0.2389294E+01
 -0.3141593E+00  0.2320675E+01  0.2337678E+01
 -0.2792527E+00  0.2229179E+01  0.2283055E+01
 -0.2443461E+00  0.2147108E+01  0.2225663E+01
 -0.2094395E+00  0.2074792E+01  0.2165877E+01
 -0.1745329E+00  0.2012374E+01  0.2104174E+01
 -0.1396263E+00  0.1959889E+01  0.2041195E+01
 -0.1047198E+00  0.1917140E+01  0.1977637E+01
 -0.6981317E-01  0.1883767E+01  0.1914278E+01
 -0.3490658E-01  0.1859218E+01  0.1851936E+01
  0.0000000E+00  0.1842793E+01  0.1791425E+01
  0.3490658E-01  0.1833588E+01  0.1733387E+01
  0.6981317E-01  0.1830663E+01  0.1678399E+01
  0.1047198E+00  0.1832975E+01  0.1627007E+01
  0.1396263E+00  0.1839499E+01  0.1579533E+01
  0.1745329E+00  0.1849206E+01  0.1536185E+01
  0.2094395E+00  0.1861109E+01  0.1497159E+01
  0.2443461E+00  0.1874312E+01  0.1462476E+01
  0.2792527E+00  0.1887977E+01  0.1432140E+01
  0.3141593E+00  0.1901374E+01  0.1406112E+01
  0.3490659E+00  0.1913861E+01  0.1384308E+01
  0.3839725E+00  0.1924894E+01  0.1366671E+01
  0.4188790E+00  0.1934065E+01  0.1353113E+01
  0.4537856E+00  0.1940986E+01  0.1343580E+01
  0.4886922E+00  0.1945454E+01  0.1338018E+01
  0.5235988E+00  0.1947312E+01  0.1336398E+01
  0.5585054E+00  0.1946511E+01  0.1338719E+01
  0.5934120E+00  0.1943081E+01  0.1345007E+01
  0.6283185E+00  0.1937175E+01  0.1355297E+01
  0.6632251E+00  0.1929032E+01  0.1369654E+01
  0.6981317E+00  0.1919008E+01  0.1388147E+01
  0.7330383E+00  0.1907539E+01  0.1410877E+01
  0.7679449E+00  0.1895197E+01  0.1437913E+01
  0.8028514E+00  0.1882624E+01  0.1469344E+01
  0.8377581E+00  0.1870606E+01  0.1505217E+01
  0.8726646E+00  0.1860009E+01  0.1545524E+01
  0.9075713E+00  0.1851795E+01  0.1590210E+01
  0.9424778E+00  0.1846991E+01  0.1639105E+01
  0.9773844E+00  0.1846673E+01  0.1691943E+01
  0.1012291E+01  0.1851941E+01  0.1748336E+01
  0.1047198E+01  0.1863859E+01  0.1807749E+01
  0.1082104E+01  0.1883411E+01  0.1869516E+01
  0.1117011E+01  0.1911465E+01  0.1932918E+01
  0.1151917E+01  0.1948727E+01  0.1997104E+01
  0.1186824E+01  0.1995724E+01  0.2061252E+01
  0.1221731E+01  0.2052733E+01  0.2124552E+01
  0.1256637E+01  0.2119875E+01  0.2186299E+01
  0.1291544E+01  0.2197036E+01  0.2245885E+01
  0.1326450E+01  0.2283959E+01  0.2302840E+01
  0.1361357E+01  0.2380214E+01  0.2356826E+01
  0.1396263E+01  0.2485263E+01  0.2407640E+01
  0.1431170E+01  0.2598605E+01  0.2455228E+01
  0.1466077E+01  0.2719496E+01  0.2499551E+01
  0.1500983E+01  0.2847364E+01  0.2540718E+01
  0.1535890E+01  0.2981508E+01  0.2578843E+01
  0.1570796E+01  0.3121365E+01  0.2614109E+01
  0.1605703E+01  0.3266149E+01  0.2646661E+01
  0.1640610E+01  0.3415495E+01  0.2676727E+01
  0.1675516E+01  0.3568611E+01  0.2704463E+01
  0.1710423E+01  0.3725056E+01  0.2730068E+01
  0.1745329E+01  0.3884282E+01  0.2753715E+01
  0.1780236E+01  0.4045851E+01  0.2775574E+01
  0.1815143E+01  0.4209289E+01  0.2795793E+01
  0.1850049E+01  0.4374182E+01  0.2814520E+01
  0.1884956E+01  0.4540119E+01  0.2831880E+01
  0.1919862E+01  0.4706752E+01  0.2847993E+01
  0.1954769E+01  0.4873734E+01  0.2862969E+01
  0.1989675E+01  0.5040744E+01  0.2876903E+01
  0.2024582E+01  0.5207492E+01  0.2889885E+01
  0.2059489E+01  0.5373705E+01  0.2901995E+01
  0.2094395E+01  0.5539120E+01  0.2913307E+01
  0.2129302E+01  0.5703516E+01  0.2923886E+01
  0.2164208E+01  0.5866665E+01  0.2933791E+01
  0.2199115E+01  0.6028385E+01  0.2943076E+01
  0.2234021E+01  0.6188473E+01  0.2951788E+01
  0.2268928E+01  0.6346786E+01  0.2959973E+01
  0.2303835E+01  0.6503167E+01  0.2967671E+01
  0.2338741E+01  0.6657459E+01  0.2974917E+01
  0.2373648E+01  0.6809560E+01  0.2981744E+01
  0.2408554E+01  0.6959335E+01  0.2988183E+01
  0.2443461E+01  0.7106699E+01  0.2994259E+01
  0.2478368E+01  0.7251551E+01  0.2999998E+01
  0.2513274E+01  0.7393802E+01  0.3005423E+01
  0.2548181E+01  0.7533362E+01  0.3010553E+01
  0.2583087E+01  0.7670173E+01  0.3015406E+01
  0.2617994E+01  0.7804169E+01  0.3020001E+01
  0.2652900E+01  0.7935265E+01  0.3024350E+01
  0.2687807E+01  0.8063433E+01  0.3028470E+01
  0.2722714E+01  0.8188585E+01  0.3032373E+01
  0.2757620E+01  0.8310677E+01  0.3036070E+01
  0.2792527E+01  0.8429647E+01  0.3039571E+01
  0.2827433E+01  0.8545439E+01  0.3042886E+01
  0.2862340E+01  0.8657991E+01  0.3046024E+01
  0.2897247E+01  0.8767290E+01  0.3048994E+01
  0.2932153E+01  0.8873209E+01  0.3051800E+01
  0.2967060E+01  0.8975718E+01  0.3054451E+01
  0.3001966E+01  0.9074697E+01  0.3056952E+01
  0.3036873E+01  0.9170189E+01  0.3059309E+01
  0.3071780E+01  0.9262030E+01  0.3061526E+01
  0.3106686E+01  0.9350091E+01  0.3063605E+01
  0.3141593E+01  0.9434439E+01  0.3065556E+01
