VARIABLES="X" "Y" "Z" "Module" "Phase" "Real" "Imag" "Re(NVEL)" "Im(NVEL)"
ZONE t="Free surface",N=      9, E=      4 , F=FEPOINT,ET=QUADRILATERAL
  -0.6000000E+01  -0.6000000E+01   0.0000000E+00   0.4278856E+00  -0.2981982E+01  -0.4224468E+00  -0.6800564E-01   0.0000000E+00   0.0000000E+00
  -0.6000000E+01   0.0000000E+00   0.0000000E+00   0.5636750E+00   0.3102391E+01  -0.5632419E+00   0.2209132E-01   0.0000000E+00   0.0000000E+00
  -0.6000000E+01   0.6000000E+01   0.0000000E+00   0.2546436E+00  -0.3027782E+01  -0.2529962E+00  -0.2891862E-01   0.0000000E+00   0.0000000E+00
   0.0000000E+00  -0.6000000E+01   0.0000000E+00   0.4180629E+00  -0.3089190E+01  -0.4174890E+00  -0.2189755E-01   0.0000000E+00   0.0000000E+00
   0.0000000E+00   0.0000000E+00   0.0000000E+00   0.2642175E+00   0.2447148E+01  -0.2030272E+00   0.1690883E+00   0.0000000E+00   0.0000000E+00
   0.0000000E+00   0.6000000E+01   0.0000000E+00   0.1041792E+00   0.1390986E+01   0.1863168E-01   0.1024996E+00   0.0000000E+00   0.0000000E+00
   0.6000000E+01  -0.6000000E+01   0.0000000E+00   0.1326254E+00   0.2879880E+01  -0.1281093E+00   0.3431480E-01   0.0000000E+00   0.0000000E+00
   0.6000000E+01   0.0000000E+00   0.0000000E+00   0.2835642E+00   0.9680238E+00   0.1607606E+00   0.2335908E+00   0.0000000E+00   0.0000000E+00
   0.6000000E+01   0.6000000E+01   0.0000000E+00   0.1798089E+00   0.1359198E+01   0.3776393E-01   0.1757985E+00   0.0000000E+00   0.0000000E+00
       1       2       5       4
       2       3       6       5
       4       5       8       7
       5       6       9       8
