VARIABLES="X" "Y" "Z" "Module" "Phase" "Real" "Imag" "Re(NVEL)" "Im(NVEL)"
ZONE t="Free surface",N=      9, E=      4 , F=FEPOINT,ET=QUADRILATERAL
  -0.6000000E+01  -0.6000000E+01   0.0000000E+00   0.4278846E+00  -0.2981983E+01  -0.4224460E+00  -0.6800490E-01   0.0000000E+00   0.0000000E+00
  -0.6000000E+01   0.0000000E+00   0.0000000E+00   0.5636737E+00   0.3102389E+01  -0.5632406E+00   0.2209238E-01   0.0000000E+00   0.0000000E+00
  -0.6000000E+01   0.6000000E+01   0.0000000E+00   0.2546436E+00  -0.3027783E+01  -0.2529962E+00  -0.2891845E-01   0.0000000E+00   0.0000000E+00
   0.0000000E+00  -0.6000000E+01   0.0000000E+00   0.4180622E+00  -0.3089190E+01  -0.4174883E+00  -0.2189730E-01   0.0000000E+00   0.0000000E+00
   0.0000000E+00   0.0000000E+00   0.0000000E+00   0.2642177E+00   0.2447149E+01  -0.2030274E+00   0.1690884E+00   0.0000000E+00   0.0000000E+00
   0.0000000E+00   0.6000000E+01   0.0000000E+00   0.1041786E+00   0.1390996E+01   0.1863062E-01   0.1024991E+00   0.0000000E+00   0.0000000E+00
   0.6000000E+01  -0.6000000E+01   0.0000000E+00   0.1326257E+00   0.2879882E+01  -0.1281097E+00   0.3431473E-01   0.0000000E+00   0.0000000E+00
   0.6000000E+01   0.0000000E+00   0.0000000E+00   0.2835630E+00   0.9680275E+00   0.1607591E+00   0.2335905E+00   0.0000000E+00   0.0000000E+00
   0.6000000E+01   0.6000000E+01   0.0000000E+00   0.1798080E+00   0.1359205E+01   0.3776252E-01   0.1757979E+00   0.0000000E+00   0.0000000E+00
       1       2       5       4
       2       3       6       5
       4       5       8       7
       5       6       9       8
