VARIABLES="X" "Y" "Z" "Module" "Phase" "Real" "Imag" "Re(NVEL)" "Im(NVEL)"
 ZONE t="Body",N=         768 , E=         588  , F=FEPOINT,ET=QUADRILATERAL
  -0.5000000E+01   0.0000000E+00  -0.5000000E+01   0.2974046E+01   0.1304617E+01   0.7823156E+00   0.2869309E+01  -0.2370839E+00
  -0.5087859E+00
  -0.5000000E+01   0.0000000E+00  -0.4285714E+01   0.3657837E+01   0.1376001E+01   0.7080310E+00   0.3588657E+01  -0.2541955E+00
  -0.5455077E+00
  -0.5000000E+01   0.0000000E+00  -0.3571429E+01   0.4202576E+01   0.1404119E+01   0.6972356E+00   0.4144334E+01  -0.2727386E+00
  -0.5853014E+00
  -0.5000000E+01   0.0000000E+00  -0.2857143E+01   0.4695841E+01   0.1418035E+01   0.7145544E+00   0.4641157E+01  -0.2928177E+00
  -0.6283914E+00
  -0.5000000E+01   0.0000000E+00  -0.2142857E+01   0.5168288E+01   0.1426126E+01   0.7450906E+00   0.5114298E+01  -0.3145457E+00
  -0.6750200E+00
  -0.5000000E+01   0.0000000E+00  -0.1428571E+01   0.5630827E+01   0.1430544E+01   0.7871523E+00   0.5575536E+01  -0.3380452E+00
  -0.7254503E+00
  -0.5000000E+01   0.0000000E+00  -0.7142859E+00   0.6071554E+01   0.1431473E+01   0.8431722E+00   0.6012722E+01  -0.3634482E+00
  -0.7799656E+00
  -0.5000000E+01   0.0000000E+00   0.0000000E+00   0.6071554E+01   0.1431473E+01   0.8431722E+00   0.6012722E+01  -0.3634482E+00
  -0.7799656E+00
  -0.5000000E+01   0.7142857E+00  -0.5000000E+01   0.2922353E+01   0.1307678E+01   0.7600841E+00   0.2821776E+01  -0.2178356E+00
  -0.5173196E+00
  -0.5000000E+01   0.7142857E+00  -0.4285714E+01   0.3590049E+01   0.1381870E+01   0.6742281E+00   0.3526169E+01  -0.2335579E+00
  -0.5546573E+00
  -0.5000000E+01   0.7142857E+00  -0.3571429E+01   0.4121739E+01   0.1411016E+01   0.6557763E+00   0.4069237E+01  -0.2505956E+00
  -0.5951185E+00
  -0.5000000E+01   0.7142857E+00  -0.2857143E+01   0.4603098E+01   0.1425423E+01   0.6668132E+00   0.4554544E+01  -0.2690444E+00
  -0.6389312E+00
  -0.5000000E+01   0.7142857E+00  -0.2142857E+01   0.5063600E+01   0.1433772E+01   0.6916676E+00   0.5016138E+01  -0.2890084E+00
  -0.6863419E+00
  -0.5000000E+01   0.7142857E+00  -0.1428571E+01   0.5513756E+01   0.1438344E+01   0.7281784E+00   0.5465461E+01  -0.3106000E+00
  -0.7376180E+00
  -0.5000000E+01   0.7142857E+00  -0.7142859E+00   0.5941268E+01   0.1439306E+01   0.7789705E+00   0.5889980E+01  -0.3339406E+00
  -0.7930477E+00
  -0.5000000E+01   0.7142857E+00   0.0000000E+00   0.5941268E+01   0.1439306E+01   0.7789705E+00   0.5889980E+01  -0.3339406E+00
  -0.7930477E+00
  -0.5000000E+01   0.1428571E+01  -0.5000000E+01   0.2841220E+01   0.1313583E+01   0.7227668E+00   0.2747751E+01  -0.1982807E+00
  -0.5251253E+00
  -0.5000000E+01   0.1428571E+01  -0.4285714E+01   0.3483802E+01   0.1389933E+01   0.6266640E+00   0.3426976E+01  -0.2125917E+00
  -0.5630264E+00
  -0.5000000E+01   0.1428571E+01  -0.3571429E+01   0.3993998E+01   0.1419765E+01   0.6009290E+00   0.3948532E+01  -0.2280999E+00
  -0.6040981E+00
  -0.5000000E+01   0.1428571E+01  -0.2857143E+01   0.4455434E+01   0.1434467E+01   0.6055259E+00   0.4414094E+01  -0.2448926E+00
  -0.6485719E+00
  -0.5000000E+01   0.1428571E+01  -0.2142857E+01   0.4897309E+01   0.1442932E+01   0.6244870E+00   0.4857330E+01  -0.2630644E+00
  -0.6966981E+00
  -0.5000000E+01   0.1428571E+01  -0.1428571E+01   0.5330768E+01   0.1447563E+01   0.6552672E+00   0.5290341E+01  -0.2827178E+00
  -0.7487479E+00
  -0.5000000E+01   0.1428571E+01  -0.7142859E+00   0.5746348E+01   0.1448509E+01   0.7009534E+00   0.5703436E+01  -0.3039632E+00
  -0.8050139E+00
  -0.5000000E+01   0.1428571E+01   0.0000000E+00   0.5746348E+01   0.1448509E+01   0.7009534E+00   0.5703436E+01  -0.3039632E+00
  -0.8050139E+00
  -0.5000000E+01   0.2142857E+01  -0.5000000E+01   0.2726474E+01   0.1322159E+01   0.6709389E+00   0.2642631E+01  -0.1784469E+00
  -0.5321922E+00
  -0.5000000E+01   0.2142857E+01  -0.4285714E+01   0.3332630E+01   0.1399855E+01   0.5669149E+00   0.3284057E+01  -0.1913264E+00
  -0.5706034E+00
  -0.5000000E+01   0.2142857E+01  -0.3571429E+01   0.3811462E+01   0.1429944E+01   0.5350792E+00   0.3773716E+01  -0.2052833E+00
  -0.6122278E+00
  -0.5000000E+01   0.2142857E+01  -0.2857143E+01   0.4244692E+01   0.1444750E+01   0.5336136E+00   0.4211017E+01  -0.2203962E+00
  -0.6573001E+00
  -0.5000000E+01   0.2142857E+01  -0.2142857E+01   0.4659575E+01   0.1453236E+01   0.5465217E+00   0.4627413E+01  -0.2367504E+00
  -0.7060739E+00
  -0.5000000E+01   0.2142857E+01  -0.1428571E+01   0.5067923E+01   0.1457928E+01   0.5707953E+00   0.5035676E+01  -0.2544378E+00
  -0.7588242E+00
  -0.5000000E+01   0.2142857E+01  -0.7142859E+00   0.5460285E+01   0.1458913E+01   0.6096435E+00   0.5426145E+01  -0.2735580E+00
  -0.8158474E+00
  -0.5000000E+01   0.2142857E+01   0.0000000E+00   0.5460285E+01   0.1458913E+01   0.6096435E+00   0.5426145E+01  -0.2735580E+00
  -0.8158474E+00
  -0.5000000E+01   0.2857143E+01  -0.5000000E+01   0.2569964E+01   0.1333459E+01   0.6042393E+00   0.2497921E+01  -0.1583620E+00
  -0.5385103E+00
  -0.5000000E+01   0.2857143E+01  -0.4285714E+01   0.3123108E+01   0.1411319E+01   0.4959558E+00   0.3083477E+01  -0.1697918E+00
  -0.5773774E+00
  -0.5000000E+01   0.2857143E+01  -0.3571429E+01   0.3556928E+01   0.1441147E+01   0.4598608E+00   0.3527076E+01  -0.1821778E+00
  -0.6194960E+00
  -0.5000000E+01   0.2857143E+01  -0.2857143E+01   0.3949920E+01   0.1455832E+01   0.4530991E+00   0.3923846E+01  -0.1955898E+00
  -0.6651034E+00
  -0.5000000E+01   0.2857143E+01  -0.2142857E+01   0.4327411E+01   0.1464290E+01   0.4600243E+00   0.4302890E+01  -0.2101032E+00
  -0.7144563E+00
  -0.5000000E+01   0.2857143E+01  -0.1428571E+01   0.4699921E+01   0.1469011E+01   0.4775586E+00   0.4675596E+01  -0.2257998E+00
  -0.7678328E+00
  -0.5000000E+01   0.2857143E+01  -0.7142859E+00   0.5063253E+01   0.1470098E+01   0.5090002E+00   0.5037604E+01  -0.2427680E+00
  -0.8255330E+00
  -0.5000000E+01   0.2857143E+01   0.0000000E+00   0.5063253E+01   0.1470098E+01   0.5090002E+00   0.5037604E+01  -0.2427680E+00
  -0.8255330E+00
  -0.5000000E+01   0.3571429E+01  -0.5000000E+01   0.2353989E+01   0.1347551E+01   0.5211637E+00   0.2295572E+01  -0.1380542E+00
  -0.5440707E+00
  -0.5000000E+01   0.3571429E+01  -0.4285714E+01   0.2824789E+01   0.1423521E+01   0.4145202E+00   0.2794209E+01  -0.1480183E+00
  -0.5833392E+00
  -0.5000000E+01   0.3571429E+01  -0.3571429E+01   0.3193428E+01   0.1452410E+01   0.3771751E+00   0.3171075E+01  -0.1588160E+00
  -0.6258926E+00
  -0.5000000E+01   0.3571429E+01  -0.2857143E+01   0.3530897E+01   0.1466824E+01   0.3664553E+00   0.3511830E+01  -0.1705081E+00
  -0.6719709E+00
  -0.5000000E+01   0.3571429E+01  -0.2142857E+01   0.3858006E+01   0.1475237E+01   0.3681079E+00   0.3840405E+01  -0.1831603E+00
  -0.7218333E+00
  -0.5000000E+01   0.3571429E+01  -0.1428571E+01   0.4182494E+01   0.1480042E+01   0.3790597E+00   0.4165282E+01  -0.1968441E+00
  -0.7757610E+00
  -0.5000000E+01   0.3571429E+01  -0.7142859E+00   0.4498037E+01   0.1481253E+01   0.4022322E+00   0.4480017E+01  -0.2116363E+00
  -0.8340570E+00
  -0.5000000E+01   0.3571429E+01   0.0000000E+00   0.4498037E+01   0.1481253E+01   0.4022322E+00   0.4480017E+01  -0.2116363E+00
  -0.8340570E+00
  -0.5000000E+01   0.4285714E+01  -0.5000000E+01   0.2002004E+01   0.1364354E+01   0.4103681E+00   0.1959494E+01  -0.1175523E+00
  -0.5488655E+00
  -0.5000000E+01   0.4285714E+01  -0.4285714E+01   0.2323533E+01   0.1432792E+01   0.3196417E+00   0.2301441E+01  -0.1260366E+00
  -0.5884801E+00
  -0.5000000E+01   0.4285714E+01  -0.3571429E+01   0.2589184E+01   0.1460232E+01   0.2856882E+00   0.2573375E+01  -0.1352308E+00
  -0.6314086E+00
  -0.5000000E+01   0.4285714E+01  -0.2857143E+01   0.2841906E+01   0.1474866E+01   0.2722066E+00   0.2828839E+01  -0.1451865E+00
  -0.6778929E+00
  -0.5000000E+01   0.4285714E+01  -0.2142857E+01   0.3092691E+01   0.1483695E+01   0.2690362E+00   0.3080967E+01  -0.1559598E+00
  -0.7281948E+00
  -0.5000000E+01   0.4285714E+01  -0.1428571E+01   0.3345641E+01   0.1488904E+01   0.2736756E+00   0.3334429E+01  -0.1676114E+00
  -0.7825977E+00
  -0.5000000E+01   0.4285714E+01  -0.7142859E+00   0.3594255E+01   0.1490323E+01   0.2889305E+00   0.3582623E+01  -0.1802069E+00
  -0.8414074E+00
  -0.5000000E+01   0.4285714E+01   0.0000000E+00   0.3594255E+01   0.1490323E+01   0.2889305E+00   0.3582623E+01  -0.1802069E+00
  -0.8414074E+00
  -0.5000000E+01   0.5000000E+01  -0.5000000E+01   0.2002004E+01   0.1364354E+01   0.4103681E+00   0.1959494E+01  -0.1175523E+00
  -0.5488655E+00
  -0.5000000E+01   0.5000000E+01  -0.4285714E+01   0.2323533E+01   0.1432792E+01   0.3196417E+00   0.2301441E+01  -0.1260366E+00
  -0.5884801E+00
  -0.5000000E+01   0.5000000E+01  -0.3571429E+01   0.2589184E+01   0.1460232E+01   0.2856882E+00   0.2573375E+01  -0.1352308E+00
  -0.6314086E+00
  -0.5000000E+01   0.5000000E+01  -0.2857143E+01   0.2841906E+01   0.1474866E+01   0.2722066E+00   0.2828839E+01  -0.1451865E+00
  -0.6778929E+00
  -0.5000000E+01   0.5000000E+01  -0.2142857E+01   0.3092691E+01   0.1483695E+01   0.2690362E+00   0.3080967E+01  -0.1559598E+00
  -0.7281948E+00
  -0.5000000E+01   0.5000000E+01  -0.1428571E+01   0.3345641E+01   0.1488904E+01   0.2736756E+00   0.3334429E+01  -0.1676114E+00
  -0.7825977E+00
  -0.5000000E+01   0.5000000E+01  -0.7142859E+00   0.3594255E+01   0.1490323E+01   0.2889305E+00   0.3582623E+01  -0.1802069E+00
  -0.8414074E+00
  -0.5000000E+01   0.5000000E+01   0.0000000E+00   0.3594255E+01   0.1490323E+01   0.2889305E+00   0.3582623E+01  -0.1802069E+00
  -0.8414074E+00
  -0.5000000E+01   0.5000000E+01  -0.5000000E+01   0.1165769E+01   0.1226846E+01   0.3931076E+00   0.1097489E+01   0.5154840E-01
   0.3199480E+00
  -0.5000000E+01   0.5000000E+01  -0.4285714E+01   0.1197988E+01   0.1328032E+01   0.2879803E+00   0.1162859E+01   0.5526892E-01
   0.3430403E+00
  -0.5000000E+01   0.5000000E+01  -0.3571429E+01   0.1269246E+01   0.1376043E+01   0.2456299E+00   0.1245252E+01   0.5930069E-01
   0.3680645E+00
  -0.5000000E+01   0.5000000E+01  -0.2857143E+01   0.1357297E+01   0.1403696E+01   0.2257514E+00   0.1338392E+01   0.6366641E-01
   0.3951614E+00
  -0.5000000E+01   0.5000000E+01  -0.2142857E+01   0.1456460E+01   0.1421102E+01   0.2172105E+00   0.1440172E+01   0.6839066E-01
   0.4244837E+00
  -0.5000000E+01   0.5000000E+01  -0.1428571E+01   0.1566180E+01   0.1431637E+01   0.2172464E+00   0.1551039E+01   0.7350007E-01
   0.4561966E+00
  -0.5000000E+01   0.5000000E+01  -0.7142859E+00   0.1691525E+01   0.1434774E+01   0.2293760E+00   0.1675901E+01   0.7902338E-01
   0.4904783E+00
  -0.5000000E+01   0.5000000E+01   0.0000000E+00   0.1691525E+01   0.1434774E+01   0.2293760E+00   0.1675901E+01   0.7902338E-01
   0.4904783E+00
  -0.4285714E+01   0.5000000E+01  -0.5000000E+01   0.9283826E+00   0.9486374E+00   0.5410529E+00   0.7544243E+00   0.3066589E-01
   0.3226199E+00
  -0.4285714E+01   0.5000000E+01  -0.4285714E+01   0.8142316E+00   0.1044039E+01   0.4093411E+00   0.7038559E+00   0.3287921E-01
   0.3459050E+00
  -0.4285714E+01   0.5000000E+01  -0.3571429E+01   0.7895879E+00   0.1099263E+01   0.3586727E+00   0.7034222E+00   0.3527769E-01
   0.3711382E+00
  -0.4285714E+01   0.5000000E+01  -0.2857143E+01   0.8004283E+00   0.1133639E+01   0.3388737E+00   0.7251552E+00   0.3787483E-01
   0.3984614E+00
  -0.4285714E+01   0.5000000E+01  -0.2142857E+01   0.8315651E+00   0.1157845E+01   0.3337188E+00   0.7616642E+00   0.4068527E-01
   0.4280285E+00
  -0.4285714E+01   0.5000000E+01  -0.1428571E+01   0.8788674E+00   0.1174217E+01   0.3394758E+00   0.8106566E+00   0.4372483E-01
   0.4600062E+00
  -0.4285714E+01   0.5000000E+01  -0.7142859E+00   0.9474810E+00   0.1181288E+01   0.3597904E+00   0.8765108E+00   0.4701062E-01
   0.4945742E+00
  -0.4285714E+01   0.5000000E+01   0.0000000E+00   0.9474810E+00   0.1181288E+01   0.3597904E+00   0.8765108E+00   0.4701062E-01
   0.4945742E+00
  -0.3571429E+01   0.5000000E+01  -0.5000000E+01   0.8744777E+00   0.6766139E+00   0.6818280E+00   0.5475599E+00   0.9653972E-02
   0.3239302E+00
  -0.3571429E+01   0.5000000E+01  -0.4285714E+01   0.6945845E+00   0.6661646E+00   0.5460806E+00   0.4292360E+00   0.1035075E-01
   0.3473099E+00
  -0.3571429E+01   0.5000000E+01  -0.3571429E+01   0.6224407E+00   0.6479549E+00   0.4962843E+00   0.3756785E+00   0.1110582E-01
   0.3726456E+00
  -0.3571429E+01   0.5000000E+01  -0.2857143E+01   0.5957841E+00   0.6306273E+00   0.4811897E+00   0.3513050E+00   0.1192343E-01
   0.4000798E+00
  -0.3571429E+01   0.5000000E+01  -0.2142857E+01   0.5937473E+00   0.6213784E+00   0.4827621E+00   0.3456538E+00   0.1280819E-01
   0.4297670E+00
  -0.3571429E+01   0.5000000E+01  -0.1428571E+01   0.6101435E+00   0.6190394E+00   0.4969230E+00   0.3540376E+00   0.1376508E-01
   0.4618745E+00
  -0.3571429E+01   0.5000000E+01  -0.7142859E+00   0.6490511E+00   0.6219624E+00   0.5275077E+00   0.3781574E+00   0.1479948E-01
   0.4965830E+00
  -0.3571429E+01   0.5000000E+01   0.0000000E+00   0.6490511E+00   0.6219624E+00   0.5275077E+00   0.3781574E+00   0.1479948E-01
   0.4965830E+00
  -0.2857143E+01   0.5000000E+01  -0.5000000E+01   0.9055187E+00   0.4510084E+00   0.8149741E+00   0.3946915E+00  -0.1139871E-01
   0.3238735E+00
  -0.2857143E+01   0.5000000E+01  -0.4285714E+01   0.7227063E+00   0.3233500E+00   0.6852530E+00   0.2296361E+00  -0.1222141E-01
   0.3472492E+00
  -0.2857143E+01   0.5000000E+01  -0.3571429E+01   0.6566918E+00   0.2106573E+00   0.6421747E+00   0.1373161E+00  -0.1311294E-01
   0.3725803E+00
  -0.2857143E+01   0.5000000E+01  -0.2857143E+01   0.6402051E+00   0.1223098E+00   0.6354225E+00   0.7810827E-01  -0.1407832E-01
   0.4000098E+00
  -0.2857143E+01   0.5000000E+01  -0.2142857E+01   0.6477879E+00   0.6150347E-01   0.6465631E+00   0.3981609E-01  -0.1512297E-01
   0.4296917E+00
  -0.2857143E+01   0.5000000E+01  -0.1428571E+01   0.6716694E+00   0.2486178E-01   0.6714619E+00   0.1669718E-01  -0.1625280E-01
   0.4617937E+00
  -0.2857143E+01   0.5000000E+01  -0.7142859E+00   0.7147524E+00   0.2135062E-01   0.7145895E+00   0.1525925E-01  -0.1747415E-01
   0.4964960E+00
  -0.2857143E+01   0.5000000E+01   0.0000000E+00   0.7147524E+00   0.2135062E-01   0.7145895E+00   0.1525925E-01  -0.1747415E-01
   0.4964960E+00
  -0.2142857E+01   0.5000000E+01  -0.5000000E+01   0.9791042E+00   0.2870249E+00   0.9390494E+00   0.2771845E+00  -0.3240327E-01
   0.3224500E+00
  -0.2142857E+01   0.5000000E+01  -0.4285714E+01   0.8252416E+00   0.9288665E-01   0.8216841E+00   0.7654375E-01  -0.3474198E-01
   0.3457229E+00
  -0.2142857E+01   0.5000000E+01  -0.3571429E+01   0.7906520E+00  -0.5730368E-01   0.7893542E+00  -0.4528248E-01  -0.3727635E-01
   0.3709428E+00
  -0.2142857E+01   0.5000000E+01  -0.2857143E+01   0.8045056E+00  -0.1635144E+00   0.7937745E+00  -0.1309628E+00  -0.4002064E-01
   0.3982516E+00
  -0.2142857E+01   0.5000000E+01  -0.2142857E+01   0.8395584E+00  -0.2341356E+00   0.8166513E+00  -0.1947795E+00  -0.4299029E-01
   0.4278032E+00
  -0.2142857E+01   0.5000000E+01  -0.1428571E+01   0.8880710E+00  -0.2760593E+00   0.8544460E+00  -0.2420582E+00  -0.4620207E-01
   0.4597640E+00
  -0.2142857E+01   0.5000000E+01  -0.7142859E+00   0.9496382E+00  -0.2843014E+00   0.9115177E+00  -0.2663611E+00  -0.4967401E-01
   0.4943138E+00
  -0.2142857E+01   0.5000000E+01   0.0000000E+00   0.9496382E+00  -0.2843014E+00   0.9115177E+00  -0.2663611E+00  -0.4967401E-01
   0.4943138E+00
  -0.1428571E+01   0.5000000E+01  -0.5000000E+01   0.1069422E+01   0.1746099E+00   0.1053161E+01   0.1857842E+00  -0.5327109E-01
   0.3196657E+00
  -0.1428571E+01   0.5000000E+01  -0.4285714E+01   0.9534153E+00  -0.4516368E-01   0.9524431E+00  -0.4304510E-01  -0.5711594E-01
   0.3427377E+00
  -0.1428571E+01   0.5000000E+01  -0.3571429E+01   0.9524819E+00  -0.1988697E+00   0.9337089E+00  -0.1881737E+00  -0.6128245E-01
   0.3677397E+00
  -0.1428571E+01   0.5000000E+01  -0.2857143E+01   0.9960527E+00  -0.3010525E+00   0.9512551E+00  -0.2953551E+00  -0.6579407E-01
   0.3948128E+00
  -0.1428571E+01   0.5000000E+01  -0.2142857E+01   0.1057981E+01  -0.3670591E+00   0.9875051E+00  -0.3796796E+00  -0.7067619E-01
   0.4241092E+00
  -0.1428571E+01   0.5000000E+01  -0.1428571E+01   0.1131228E+01  -0.4052534E+00   0.1039602E+01  -0.4459887E+00  -0.7595637E-01
   0.4557940E+00
  -0.1428571E+01   0.5000000E+01  -0.7142859E+00   0.1212898E+01  -0.4113446E+00   0.1111723E+01  -0.4849679E+00  -0.8166424E-01
   0.4900455E+00
  -0.1428571E+01   0.5000000E+01   0.0000000E+00   0.1212898E+01  -0.4113446E+00   0.1111723E+01  -0.4849679E+00  -0.8166424E-01
   0.4900455E+00
  -0.7142859E+00   0.5000000E+01  -0.5000000E+01   0.1163212E+01   0.9758581E-01   0.1157678E+01   0.1133329E+00  -0.7391409E-01
   0.3155324E+00
  -0.7142859E+00   0.5000000E+01  -0.4285714E+01   0.1085486E+01  -0.1272815E+00   0.1076705E+01  -0.1377896E+00  -0.7924886E-01
   0.3383060E+00
  -0.7142859E+00   0.5000000E+01  -0.3571429E+01   0.1114646E+01  -0.2730087E+00   0.1073364E+01  -0.3005420E+00  -0.8502991E-01
   0.3629848E+00
  -0.7142859E+00   0.5000000E+01  -0.2857143E+01   0.1183225E+01  -0.3658685E+00   0.1104911E+01  -0.4233111E+00  -0.9128983E-01
   0.3897078E+00
  -0.7142859E+00   0.5000000E+01  -0.2142857E+01   0.1267527E+01  -0.4251243E+00   0.1154701E+01  -0.5227711E+00  -0.9806383E-01
   0.4186253E+00
  -0.7142859E+00   0.5000000E+01  -0.1428571E+01   0.1361351E+01  -0.4597229E+00   0.1220010E+01  -0.6040313E+00  -0.1053901E+00
   0.4499005E+00
  -0.7142859E+00   0.5000000E+01  -0.7142859E+00   0.1461294E+01  -0.4670900E+00   0.1304764E+01  -0.6580059E+00  -0.1133098E+00
   0.4837091E+00
  -0.7142859E+00   0.5000000E+01   0.0000000E+00   0.1461294E+01  -0.4670900E+00   0.1304764E+01  -0.6580059E+00  -0.1133098E+00
   0.4837091E+00
   0.0000000E+00   0.5000000E+01  -0.5000000E+01   0.1163212E+01   0.9758581E-01   0.1157678E+01   0.1133329E+00  -0.7391409E-01
   0.3155324E+00
   0.0000000E+00   0.5000000E+01  -0.4285714E+01   0.1085486E+01  -0.1272815E+00   0.1076705E+01  -0.1377896E+00  -0.7924886E-01
   0.3383060E+00
   0.0000000E+00   0.5000000E+01  -0.3571429E+01   0.1114646E+01  -0.2730087E+00   0.1073364E+01  -0.3005420E+00  -0.8502991E-01
   0.3629848E+00
   0.0000000E+00   0.5000000E+01  -0.2857143E+01   0.1183225E+01  -0.3658685E+00   0.1104911E+01  -0.4233111E+00  -0.9128983E-01
   0.3897078E+00
   0.0000000E+00   0.5000000E+01  -0.2142857E+01   0.1267527E+01  -0.4251243E+00   0.1154701E+01  -0.5227711E+00  -0.9806383E-01
   0.4186253E+00
   0.0000000E+00   0.5000000E+01  -0.1428571E+01   0.1361351E+01  -0.4597229E+00   0.1220010E+01  -0.6040313E+00  -0.1053901E+00
   0.4499005E+00
   0.0000000E+00   0.5000000E+01  -0.7142859E+00   0.1461294E+01  -0.4670900E+00   0.1304764E+01  -0.6580059E+00  -0.1133098E+00
   0.4837091E+00
   0.0000000E+00   0.5000000E+01   0.0000000E+00   0.1461294E+01  -0.4670900E+00   0.1304764E+01  -0.6580059E+00  -0.1133098E+00
   0.4837091E+00
   0.0000000E+00   0.5000000E+01  -0.5000000E+01   0.1252046E+01   0.4363503E-01   0.1250854E+01   0.5461573E-01  -0.9424517E-01
   0.3100674E+00
   0.0000000E+00   0.5000000E+01  -0.4285714E+01   0.1210837E+01  -0.1777205E+00   0.1191766E+01  -0.2140597E+00  -0.1010473E+00
   0.3324466E+00
   0.0000000E+00   0.5000000E+01  -0.3571429E+01   0.1266603E+01  -0.3131887E+00   0.1204990E+01  -0.3902324E+00  -0.1084186E+00
   0.3566980E+00
   0.0000000E+00   0.5000000E+01  -0.2857143E+01   0.1356564E+01  -0.3967649E+00   0.1251181E+01  -0.5242260E+00  -0.1164003E+00
   0.3829582E+00
   0.0000000E+00   0.5000000E+01  -0.2142857E+01   0.1459517E+01  -0.4489637E+00   0.1314875E+01  -0.6334773E+00  -0.1250376E+00
   0.4113749E+00
   0.0000000E+00   0.5000000E+01  -0.1428571E+01   0.1569592E+01  -0.4780698E+00   0.1393616E+01  -0.7221161E+00  -0.1343791E+00
   0.4421084E+00
   0.0000000E+00   0.5000000E+01  -0.7142859E+00   0.1683084E+01  -0.4824328E+00   0.1490992E+01  -0.7808429E+00  -0.1444772E+00
   0.4753315E+00
   0.0000000E+00   0.5000000E+01   0.0000000E+00   0.1683084E+01  -0.4824328E+00   0.1490992E+01  -0.7808429E+00  -0.1444772E+00
   0.4753315E+00
   0.7142857E+00   0.5000000E+01  -0.5000000E+01   0.1331215E+01   0.6440301E-02   0.1331188E+01   0.8573368E-02  -0.1141785E+00
   0.3032939E+00
   0.7142857E+00   0.5000000E+01  -0.4285714E+01   0.1323822E+01  -0.2074582E+00   0.1295436E+01  -0.2726719E+00  -0.1224194E+00
   0.3251843E+00
   0.7142857E+00   0.5000000E+01  -0.3571429E+01   0.1402843E+01  -0.3327309E+00   0.1325903E+01  -0.4582043E+00  -0.1313497E+00
   0.3489059E+00
   0.7142857E+00   0.5000000E+01  -0.2857143E+01   0.1511287E+01  -0.4082586E+00   0.1387080E+01  -0.5999985E+00  -0.1410196E+00
   0.3745924E+00
   0.7142857E+00   0.5000000E+01  -0.2142857E+01   0.1630837E+01  -0.4547439E+00   0.1465101E+01  -0.7163160E+00  -0.1514837E+00
   0.4023883E+00
   0.7142857E+00   0.5000000E+01  -0.1428571E+01   0.1756378E+01  -0.4797586E+00   0.1558094E+01  -0.8106826E+00  -0.1628010E+00
   0.4324505E+00
   0.7142857E+00   0.5000000E+01  -0.7142859E+00   0.1884294E+01  -0.4822214E+00   0.1669422E+01  -0.8738383E+00  -0.1750350E+00
   0.4649478E+00
   0.7142857E+00   0.5000000E+01   0.0000000E+00   0.1884294E+01  -0.4822214E+00   0.1669422E+01  -0.8738383E+00  -0.1750350E+00
   0.4649478E+00
   0.1428571E+01   0.5000000E+01  -0.5000000E+01   0.1398389E+01  -0.1878331E-01   0.1398142E+01  -0.2626483E-01  -0.1336300E+00
   0.2952405E+00
   0.1428571E+01   0.5000000E+01  -0.4285714E+01   0.1422217E+01  -0.2233078E+00   0.1386904E+01  -0.3149592E+00  -0.1432748E+00
   0.3165496E+00
   0.1428571E+01   0.5000000E+01  -0.3571429E+01   0.1521804E+01  -0.3391674E+00   0.1435110E+01  -0.5063072E+00  -0.1537264E+00
   0.3396413E+00
   0.1428571E+01   0.5000000E+01  -0.2857143E+01   0.1646791E+01  -0.4083204E+00   0.1511407E+01  -0.6538885E+00  -0.1650438E+00
   0.3646458E+00
   0.1428571E+01   0.5000000E+01  -0.2142857E+01   0.1781654E+01  -0.4511760E+00   0.1603373E+01  -0.7768444E+00  -0.1772906E+00
   0.3917036E+00
   0.1428571E+01   0.5000000E+01  -0.1428571E+01   0.1922073E+01  -0.4747826E+00   0.1709476E+01  -0.8786662E+00  -0.1905358E+00
   0.4209675E+00
   0.1428571E+01   0.5000000E+01  -0.7142859E+00   0.2063251E+01  -0.4782043E+00   0.1831801E+01  -0.9494787E+00  -0.2048540E+00
   0.4526019E+00
   0.1428571E+01   0.5000000E+01   0.0000000E+00   0.2063251E+01  -0.4782043E+00   0.1831801E+01  -0.9494787E+00  -0.2048540E+00
   0.4526019E+00
   0.2142857E+01   0.5000000E+01  -0.5000000E+01   0.1451990E+01  -0.3936429E-01   0.1450866E+01  -0.5714181E-01  -0.1525176E+00
   0.2859412E+00
   0.2142857E+01   0.5000000E+01  -0.4285714E+01   0.1505779E+01  -0.2331386E+00   0.1465042E+01  -0.3478836E+00  -0.1635256E+00
   0.3065791E+00
   0.2142857E+01   0.5000000E+01  -0.3571429E+01   0.1623757E+01  -0.3394473E+00   0.1531103E+01  -0.5406559E+00  -0.1754545E+00
   0.3289435E+00
   0.2142857E+01   0.5000000E+01  -0.2857143E+01   0.1762629E+01  -0.4021356E+00   0.1622020E+01  -0.6898657E+00  -0.1883714E+00
   0.3531603E+00
   0.2142857E+01   0.5000000E+01  -0.2142857E+01   0.1910224E+01  -0.4408754E+00   0.1727565E+01  -0.8151524E+00  -0.2023492E+00
   0.3793659E+00
   0.2142857E+01   0.5000000E+01  -0.1428571E+01   0.2062780E+01  -0.4622735E+00   0.1846272E+01  -0.9199672E+00  -0.2174665E+00
   0.4077081E+00
   0.2142857E+01   0.5000000E+01  -0.7142859E+00   0.2215838E+01  -0.4654897E+00   0.1980077E+01  -0.9946020E+00  -0.2338085E+00
   0.4383461E+00
   0.2142857E+01   0.5000000E+01   0.0000000E+00   0.2215838E+01  -0.4654897E+00   0.1980077E+01  -0.9946020E+00  -0.2338085E+00
   0.4383461E+00
   0.2857143E+01   0.5000000E+01  -0.5000000E+01   0.1490812E+01  -0.5878767E-01   0.1488236E+01  -0.8759087E-01  -0.1707615E+00
   0.2754351E+00
   0.2857143E+01   0.5000000E+01  -0.4285714E+01   0.1574043E+01  -0.2401607E+00   0.1528868E+01  -0.3744000E+00  -0.1830862E+00
   0.2953147E+00
   0.2857143E+01   0.5000000E+01  -0.3571429E+01   0.1708816E+01  -0.3366164E+00   0.1612913E+01  -0.5644138E+00  -0.1964420E+00
   0.3168574E+00
   0.2857143E+01   0.5000000E+01  -0.2857143E+01   0.1859852E+01  -0.3927710E+00   0.1718228E+01  -0.7118580E+00  -0.2109041E+00
   0.3401844E+00
   0.2857143E+01   0.5000000E+01  -0.2142857E+01   0.2018060E+01  -0.4271935E+00   0.1836701E+01  -0.8361190E+00  -0.2265539E+00
   0.3654272E+00
   0.2857143E+01   0.5000000E+01  -0.1428571E+01   0.2180683E+01  -0.4458232E+00   0.1967534E+01  -0.9403120E+00  -0.2434795E+00
   0.3927280E+00
   0.2857143E+01   0.5000000E+01  -0.7142859E+00   0.2342057E+01  -0.4479162E+00   0.2111017E+01  -0.1014317E+01  -0.2617763E+00
   0.4222403E+00
   0.2857143E+01   0.5000000E+01   0.0000000E+00   0.2342057E+01  -0.4479162E+00   0.2111017E+01  -0.1014317E+01  -0.2617763E+00
   0.4222403E+00
   0.3571429E+01   0.5000000E+01  -0.5000000E+01   0.1514111E+01  -0.8095894E-01   0.1509152E+01  -0.1224470E+00  -0.1882847E+00
   0.2637666E+00
   0.3571429E+01   0.5000000E+01  -0.4285714E+01   0.1628049E+01  -0.2475066E+00   0.1578436E+01  -0.3988512E+00  -0.2018742E+00
   0.2828040E+00
   0.3571429E+01   0.5000000E+01  -0.3571429E+01   0.1778769E+01  -0.3333939E+00   0.1680824E+01  -0.5821054E+00  -0.2166006E+00
   0.3034341E+00
   0.3571429E+01   0.5000000E+01  -0.2857143E+01   0.1940576E+01  -0.3829850E+00   0.1799987E+01  -0.7251754E+00  -0.2325467E+00
   0.3257729E+00
   0.3571429E+01   0.5000000E+01  -0.2142857E+01   0.2107620E+01  -0.4130057E+00   0.1930408E+01  -0.8459228E+00  -0.2498025E+00
   0.3499463E+00
   0.3571429E+01   0.5000000E+01  -0.1428571E+01   0.2278276E+01  -0.4287659E+00   0.2072046E+01  -0.9471906E+00  -0.2684650E+00
   0.3760906E+00
   0.3571429E+01   0.5000000E+01  -0.7142859E+00   0.2448378E+01  -0.4298824E+00   0.2225611E+01  -0.1020395E+01  -0.2886393E+00
   0.4043526E+00
   0.3571429E+01   0.5000000E+01   0.0000000E+00   0.2448378E+01  -0.4298824E+00   0.2225611E+01  -0.1020395E+01  -0.2886393E+00
   0.4043526E+00
   0.4285714E+01   0.5000000E+01  -0.5000000E+01   0.1529449E+01  -0.1207107E+00   0.1518320E+01  -0.1841729E+00  -0.2050134E+00
   0.2509850E+00
   0.4285714E+01   0.5000000E+01  -0.4285714E+01   0.1682886E+01  -0.2641917E+00   0.1624496E+01  -0.4394504E+00  -0.2198103E+00
   0.2690999E+00
   0.4285714E+01   0.5000000E+01  -0.3571429E+01   0.1852626E+01  -0.3378344E+00   0.1747906E+01  -0.6140431E+00  -0.2358451E+00
   0.2887303E+00
   0.4285714E+01   0.5000000E+01  -0.2857143E+01   0.2027655E+01  -0.3812779E+00   0.1882049E+01  -0.7545043E+00  -0.2532080E+00
   0.3099866E+00
   0.4285714E+01   0.5000000E+01  -0.2142857E+01   0.2205663E+01  -0.4076121E+00   0.2024954E+01  -0.8743652E+00  -0.2719968E+00
   0.3329886E+00
   0.4285714E+01   0.5000000E+01  -0.1428571E+01   0.2385883E+01  -0.4212766E+00   0.2177279E+01  -0.9756490E+00  -0.2923175E+00
   0.3578659E+00
   0.4285714E+01   0.5000000E+01  -0.7142859E+00   0.2564807E+01  -0.4220998E+00   0.2339696E+01  -0.1050742E+01  -0.3142843E+00
   0.3847584E+00
   0.4285714E+01   0.5000000E+01   0.0000000E+00   0.2564807E+01  -0.4220998E+00   0.2339696E+01  -0.1050742E+01  -0.3142843E+00
   0.3847584E+00
   0.5000000E+01   0.5000000E+01  -0.5000000E+01   0.1529449E+01  -0.1207107E+00   0.1518320E+01  -0.1841729E+00  -0.2050134E+00
   0.2509850E+00
   0.5000000E+01   0.5000000E+01  -0.4285714E+01   0.1682886E+01  -0.2641917E+00   0.1624496E+01  -0.4394504E+00  -0.2198103E+00
   0.2690999E+00
   0.5000000E+01   0.5000000E+01  -0.3571429E+01   0.1852626E+01  -0.3378344E+00   0.1747906E+01  -0.6140431E+00  -0.2358451E+00
   0.2887303E+00
   0.5000000E+01   0.5000000E+01  -0.2857143E+01   0.2027655E+01  -0.3812779E+00   0.1882049E+01  -0.7545043E+00  -0.2532080E+00
   0.3099866E+00
   0.5000000E+01   0.5000000E+01  -0.2142857E+01   0.2205663E+01  -0.4076121E+00   0.2024954E+01  -0.8743652E+00  -0.2719968E+00
   0.3329886E+00
   0.5000000E+01   0.5000000E+01  -0.1428571E+01   0.2385883E+01  -0.4212766E+00   0.2177279E+01  -0.9756490E+00  -0.2923175E+00
   0.3578659E+00
   0.5000000E+01   0.5000000E+01  -0.7142859E+00   0.2564807E+01  -0.4220998E+00   0.2339696E+01  -0.1050742E+01  -0.3142843E+00
   0.3847584E+00
   0.5000000E+01   0.5000000E+01   0.0000000E+00   0.2564807E+01  -0.4220998E+00   0.2339696E+01  -0.1050742E+01  -0.3142843E+00
   0.3847584E+00
   0.5000000E+01   0.5000000E+01  -0.5000000E+01   0.1738662E+01  -0.2158141E+00   0.1698329E+01  -0.3723219E+00  -0.3610289E+00
   0.4298022E+00
   0.5000000E+01   0.5000000E+01  -0.4285714E+01   0.1983606E+01  -0.3543643E+00   0.1860360E+01  -0.6883000E+00  -0.3870863E+00
   0.4608234E+00
   0.5000000E+01   0.5000000E+01  -0.3571429E+01   0.2215352E+01  -0.4207722E+00   0.2022115E+01  -0.9048947E+00  -0.4153235E+00
   0.4944396E+00
   0.5000000E+01   0.5000000E+01  -0.2857143E+01   0.2441677E+01  -0.4588394E+00   0.2189127E+01  -0.1081438E+01  -0.4458996E+00
   0.5308402E+00
   0.5000000E+01   0.5000000E+01  -0.2142857E+01   0.2665640E+01  -0.4815887E+00   0.2362450E+01  -0.1234692E+01  -0.4789869E+00
   0.5702303E+00
   0.5000000E+01   0.5000000E+01  -0.1428571E+01   0.2887942E+01  -0.4933134E+00   0.2543608E+01  -0.1367576E+01  -0.5147716E+00
   0.6128318E+00
   0.5000000E+01   0.5000000E+01  -0.7142859E+00   0.3101428E+01  -0.4937765E+00   0.2730960E+01  -0.1469936E+01  -0.5534551E+00
   0.6588842E+00
   0.5000000E+01   0.5000000E+01   0.0000000E+00   0.3101428E+01  -0.4937765E+00   0.2730960E+01  -0.1469936E+01  -0.5534551E+00
   0.6588842E+00
   0.5000000E+01   0.4285714E+01  -0.5000000E+01   0.1896364E+01  -0.2470811E+00   0.1838772E+01  -0.4638028E+00  -0.3446556E+00
   0.4430399E+00