VARIABLES="X" "Y" "Z" "Module" "Phase" "Real" "Imag" "Re(NVEL)" "Im(NVEL)"
 ZONE t="Body",N=         768 , E=         588  , F=FEPOINT,ET=QUADRILATERAL
  -0.5000000E+01   0.0000000E+00  -0.5000000E+01   0.2974044E+01   0.1304633E+01   0.7822680E+00   0.2869319E+01  -0.2370839E+00
  -0.5087859E+00
  -0.5000000E+01   0.0000000E+00  -0.4285714E+01   0.3657837E+01   0.1376014E+01   0.7079834E+00   0.3588667E+01  -0.2541955E+00
  -0.5455077E+00
  -0.5000000E+01   0.0000000E+00  -0.3571429E+01   0.4202571E+01   0.1404130E+01   0.6971898E+00   0.4144338E+01  -0.2727386E+00
  -0.5853014E+00
  -0.5000000E+01   0.0000000E+00  -0.2857143E+01   0.4695840E+01   0.1418045E+01   0.7145101E+00   0.4641163E+01  -0.2928177E+00
  -0.6283914E+00
  -0.5000000E+01   0.0000000E+00  -0.2142857E+01   0.5168286E+01   0.1426135E+01   0.7450449E+00   0.5114302E+01  -0.3145457E+00
  -0.6750200E+00
  -0.5000000E+01   0.0000000E+00  -0.1428571E+01   0.5630830E+01   0.1430551E+01   0.7871088E+00   0.5575545E+01  -0.3380452E+00
  -0.7254503E+00
  -0.5000000E+01   0.0000000E+00  -0.7142859E+00   0.6071559E+01   0.1431481E+01   0.8431278E+00   0.6012733E+01  -0.3634482E+00
  -0.7799656E+00
  -0.5000000E+01   0.0000000E+00   0.0000000E+00   0.6071559E+01   0.1431481E+01   0.8431278E+00   0.6012733E+01  -0.3634482E+00
  -0.7799656E+00
  -0.5000000E+01   0.7142857E+00  -0.5000000E+01   0.2922351E+01   0.1307694E+01   0.7600368E+00   0.2821787E+01  -0.2178356E+00
  -0.5173196E+00
  -0.5000000E+01   0.7142857E+00  -0.4285714E+01   0.3590047E+01   0.1381883E+01   0.6741816E+00   0.3526176E+01  -0.2335579E+00
  -0.5546573E+00
  -0.5000000E+01   0.7142857E+00  -0.3571429E+01   0.4121736E+01   0.1411027E+01   0.6557276E+00   0.4069242E+01  -0.2505956E+00
  -0.5951185E+00
  -0.5000000E+01   0.7142857E+00  -0.2857143E+01   0.4603099E+01   0.1425433E+01   0.6667665E+00   0.4554552E+01  -0.2690444E+00
  -0.6389312E+00
  -0.5000000E+01   0.7142857E+00  -0.2142857E+01   0.5063660E+01   0.1433789E+01   0.6915926E+00   0.5016209E+01  -0.2890084E+00
  -0.6863419E+00
  -0.5000000E+01   0.7142857E+00  -0.1428571E+01   0.5513754E+01   0.1438352E+01   0.7281351E+00   0.5465465E+01  -0.3106000E+00
  -0.7376180E+00
  -0.5000000E+01   0.7142857E+00  -0.7142859E+00   0.5941273E+01   0.1439313E+01   0.7789271E+00   0.5889991E+01  -0.3339406E+00
  -0.7930477E+00
  -0.5000000E+01   0.7142857E+00   0.0000000E+00   0.5941273E+01   0.1439313E+01   0.7789271E+00   0.5889991E+01  -0.3339406E+00
  -0.7930477E+00
  -0.5000000E+01   0.1428571E+01  -0.5000000E+01   0.2841218E+01   0.1313601E+01   0.7227181E+00   0.2747762E+01  -0.1982807E+00
  -0.5251253E+00
  -0.5000000E+01   0.1428571E+01  -0.4285714E+01   0.3483801E+01   0.1389946E+01   0.6266170E+00   0.3426984E+01  -0.2125917E+00
  -0.5630264E+00
  -0.5000000E+01   0.1428571E+01  -0.3571429E+01   0.3993997E+01   0.1419776E+01   0.6008836E+00   0.3948537E+01  -0.2280999E+00
  -0.6040981E+00
  -0.5000000E+01   0.1428571E+01  -0.2857143E+01   0.4455436E+01   0.1434478E+01   0.6054797E+00   0.4414103E+01  -0.2448926E+00
  -0.6485719E+00
  -0.5000000E+01   0.1428571E+01  -0.2142857E+01   0.4897369E+01   0.1442950E+01   0.6244086E+00   0.4857400E+01  -0.2630644E+00
  -0.6966981E+00
  -0.5000000E+01   0.1428571E+01  -0.1428571E+01   0.5330766E+01   0.1447572E+01   0.6552211E+00   0.5290345E+01  -0.2827178E+00
  -0.7487479E+00
  -0.5000000E+01   0.1428571E+01  -0.7142859E+00   0.5746351E+01   0.1448517E+01   0.7009082E+00   0.5703444E+01  -0.3039632E+00
  -0.8050139E+00
  -0.5000000E+01   0.1428571E+01   0.0000000E+00   0.5746351E+01   0.1448517E+01   0.7009082E+00   0.5703444E+01  -0.3039632E+00
  -0.8050139E+00
  -0.5000000E+01   0.2142857E+01  -0.5000000E+01   0.2726471E+01   0.1322178E+01   0.6708905E+00   0.2642641E+01  -0.1784469E+00
  -0.5321922E+00
  -0.5000000E+01   0.2142857E+01  -0.4285714E+01   0.3332630E+01   0.1399870E+01   0.5668659E+00   0.3284065E+01  -0.1913264E+00
  -0.5706034E+00
  -0.5000000E+01   0.2142857E+01  -0.3571429E+01   0.3811462E+01   0.1429957E+01   0.5350321E+00   0.3773723E+01  -0.2052833E+00
  -0.6122278E+00
  -0.5000000E+01   0.2142857E+01  -0.2857143E+01   0.4244690E+01   0.1444761E+01   0.5335653E+00   0.4211022E+01  -0.2203962E+00
  -0.6573001E+00
  -0.5000000E+01   0.2142857E+01  -0.2142857E+01   0.4659572E+01   0.1453246E+01   0.5464746E+00   0.4627416E+01  -0.2367504E+00
  -0.7060739E+00
  -0.5000000E+01   0.2142857E+01  -0.1428571E+01   0.5067923E+01   0.1457937E+01   0.5707476E+00   0.5035681E+01  -0.2544378E+00
  -0.7588242E+00
  -0.5000000E+01   0.2142857E+01  -0.7142859E+00   0.5460291E+01   0.1458921E+01   0.6095965E+00   0.5426157E+01  -0.2735580E+00
  -0.8158474E+00
  -0.5000000E+01   0.2142857E+01   0.0000000E+00   0.5460291E+01   0.1458921E+01   0.6095965E+00   0.5426157E+01  -0.2735580E+00
  -0.8158474E+00
  -0.5000000E+01   0.2857143E+01  -0.5000000E+01   0.2569965E+01   0.1333478E+01   0.6041898E+00   0.2497934E+01  -0.1583620E+00
  -0.5385103E+00
  -0.5000000E+01   0.2857143E+01  -0.4285714E+01   0.3123111E+01   0.1411336E+01   0.4959059E+00   0.3083489E+01  -0.1697918E+00
  -0.5773774E+00
  -0.5000000E+01   0.2857143E+01  -0.3571429E+01   0.3556931E+01   0.1441161E+01   0.4598119E+00   0.3527086E+01  -0.1821778E+00
  -0.6194960E+00
  -0.5000000E+01   0.2857143E+01  -0.2857143E+01   0.3949925E+01   0.1455845E+01   0.4530497E+00   0.3923857E+01  -0.1955898E+00
  -0.6651034E+00
  -0.5000000E+01   0.2857143E+01  -0.2142857E+01   0.4327415E+01   0.1464301E+01   0.4599772E+00   0.4302900E+01  -0.2101032E+00
  -0.7144563E+00
  -0.5000000E+01   0.2857143E+01  -0.1428571E+01   0.4699923E+01   0.1469021E+01   0.4775106E+00   0.4675602E+01  -0.2257998E+00
  -0.7678328E+00
  -0.5000000E+01   0.2857143E+01  -0.7142859E+00   0.5063263E+01   0.1470107E+01   0.5089536E+00   0.5037619E+01  -0.2427680E+00
  -0.8255330E+00
  -0.5000000E+01   0.2857143E+01   0.0000000E+00   0.5063263E+01   0.1470107E+01   0.5089536E+00   0.5037619E+01  -0.2427680E+00
  -0.8255330E+00
  -0.5000000E+01   0.3571429E+01  -0.5000000E+01   0.2353988E+01   0.1347572E+01   0.5211143E+00   0.2295583E+01  -0.1380542E+00
  -0.5440707E+00
  -0.5000000E+01   0.3571429E+01  -0.4285714E+01   0.2824767E+01   0.1423538E+01   0.4144673E+00   0.2794195E+01  -0.1480183E+00
  -0.5833392E+00
  -0.5000000E+01   0.3571429E+01  -0.3571429E+01   0.3193432E+01   0.1452426E+01   0.3771251E+00   0.3171086E+01  -0.1588160E+00
  -0.6258926E+00
  -0.5000000E+01   0.3571429E+01  -0.2857143E+01   0.3530901E+01   0.1466838E+01   0.3664041E+00   0.3511838E+01  -0.1705081E+00
  -0.6719709E+00
  -0.5000000E+01   0.3571429E+01  -0.2142857E+01   0.3858011E+01   0.1475250E+01   0.3680580E+00   0.3840414E+01  -0.1831603E+00
  -0.7218333E+00
  -0.5000000E+01   0.3571429E+01  -0.1428571E+01   0.4182500E+01   0.1480053E+01   0.3790114E+00   0.4165292E+01  -0.1968441E+00
  -0.7757610E+00
  -0.5000000E+01   0.3571429E+01  -0.7142859E+00   0.4498049E+01   0.1481264E+01   0.4021810E+00   0.4480033E+01  -0.2116363E+00
  -0.8340570E+00
  -0.5000000E+01   0.3571429E+01   0.0000000E+00   0.4498049E+01   0.1481264E+01   0.4021810E+00   0.4480033E+01  -0.2116363E+00
  -0.8340570E+00
  -0.5000000E+01   0.4285714E+01  -0.5000000E+01   0.2002005E+01   0.1364381E+01   0.4103166E+00   0.1959506E+01  -0.1175523E+00
  -0.5488655E+00
  -0.5000000E+01   0.4285714E+01  -0.4285714E+01   0.2323537E+01   0.1432813E+01   0.3195935E+00   0.2301452E+01  -0.1260366E+00
  -0.5884801E+00
  -0.5000000E+01   0.4285714E+01  -0.3571429E+01   0.2589188E+01   0.1460251E+01   0.2856387E+00   0.2573384E+01  -0.1352308E+00
  -0.6314086E+00
  -0.5000000E+01   0.4285714E+01  -0.2857143E+01   0.2841910E+01   0.1474884E+01   0.2721554E+00   0.2828848E+01  -0.1451865E+00
  -0.6778929E+00
  -0.5000000E+01   0.4285714E+01  -0.2142857E+01   0.3092695E+01   0.1483711E+01   0.2689870E+00   0.3080975E+01  -0.1559598E+00
  -0.7281948E+00
  -0.5000000E+01   0.4285714E+01  -0.1428571E+01   0.3345646E+01   0.1488919E+01   0.2736253E+00   0.3334438E+01  -0.1676114E+00
  -0.7825977E+00
  -0.5000000E+01   0.4285714E+01  -0.7142859E+00   0.3594263E+01   0.1490337E+01   0.2888793E+00   0.3582635E+01  -0.1802069E+00
  -0.8414074E+00
  -0.5000000E+01   0.4285714E+01   0.0000000E+00   0.3594263E+01   0.1490337E+01   0.2888793E+00   0.3582635E+01  -0.1802069E+00
  -0.8414074E+00
  -0.5000000E+01   0.5000000E+01  -0.5000000E+01   0.2002005E+01   0.1364381E+01   0.4103166E+00   0.1959506E+01  -0.1175523E+00
  -0.5488655E+00
  -0.5000000E+01   0.5000000E+01  -0.4285714E+01   0.2323537E+01   0.1432813E+01   0.3195935E+00   0.2301452E+01  -0.1260366E+00
  -0.5884801E+00
  -0.5000000E+01   0.5000000E+01  -0.3571429E+01   0.2589188E+01   0.1460251E+01   0.2856387E+00   0.2573384E+01  -0.1352308E+00
  -0.6314086E+00
  -0.5000000E+01   0.5000000E+01  -0.2857143E+01   0.2841910E+01   0.1474884E+01   0.2721554E+00   0.2828848E+01  -0.1451865E+00
  -0.6778929E+00
  -0.5000000E+01   0.5000000E+01  -0.2142857E+01   0.3092695E+01   0.1483711E+01   0.2689870E+00   0.3080975E+01  -0.1559598E+00
  -0.7281948E+00
  -0.5000000E+01   0.5000000E+01  -0.1428571E+01   0.3345646E+01   0.1488919E+01   0.2736253E+00   0.3334438E+01  -0.1676114E+00
  -0.7825977E+00
  -0.5000000E+01   0.5000000E+01  -0.7142859E+00   0.3594263E+01   0.1490337E+01   0.2888793E+00   0.3582635E+01  -0.1802069E+00
  -0.8414074E+00
  -0.5000000E+01   0.5000000E+01   0.0000000E+00   0.3594263E+01   0.1490337E+01   0.2888793E+00   0.3582635E+01  -0.1802069E+00
  -0.8414074E+00
  -0.5000000E+01   0.5000000E+01  -0.5000000E+01   0.1165764E+01   0.1226891E+01   0.3930566E+00   0.1097503E+01   0.5154840E-01
   0.3199480E+00
  -0.5000000E+01   0.5000000E+01  -0.4285714E+01   0.1197988E+01   0.1328078E+01   0.2879265E+00   0.1162873E+01   0.5526892E-01
   0.3430403E+00
  -0.5000000E+01   0.5000000E+01  -0.3571429E+01   0.1269250E+01   0.1376084E+01   0.2455801E+00   0.1245265E+01   0.5930069E-01
   0.3680645E+00
  -0.5000000E+01   0.5000000E+01  -0.2857143E+01   0.1357302E+01   0.1403736E+01   0.2256976E+00   0.1338406E+01   0.6366641E-01
   0.3951614E+00
  -0.5000000E+01   0.5000000E+01  -0.2142857E+01   0.1456464E+01   0.1421138E+01   0.2171594E+00   0.1440184E+01   0.6839066E-01
   0.4244837E+00
  -0.5000000E+01   0.5000000E+01  -0.1428571E+01   0.1566184E+01   0.1431672E+01   0.2171925E+00   0.1551051E+01   0.7350007E-01
   0.4561966E+00
  -0.5000000E+01   0.5000000E+01  -0.7142859E+00   0.1691527E+01   0.1434807E+01   0.2293218E+00   0.1675910E+01   0.7902338E-01
   0.4904783E+00
  -0.5000000E+01   0.5000000E+01   0.0000000E+00   0.1691527E+01   0.1434807E+01   0.2293218E+00   0.1675910E+01   0.7902338E-01
   0.4904783E+00
  -0.4285714E+01   0.5000000E+01  -0.5000000E+01   0.9283631E+00   0.9486926E+00   0.5409999E+00   0.7544383E+00   0.3066589E-01
   0.3226199E+00
  -0.4285714E+01   0.5000000E+01  -0.4285714E+01   0.8142177E+00   0.1044103E+01   0.4092887E+00   0.7038702E+00   0.3287921E-01
   0.3459050E+00
  -0.4285714E+01   0.5000000E+01  -0.3571429E+01   0.7895766E+00   0.1099333E+01   0.3586183E+00   0.7034373E+00   0.3527769E-01
   0.3711382E+00
  -0.4285714E+01   0.5000000E+01  -0.2857143E+01   0.8004174E+00   0.1133708E+01   0.3388194E+00   0.7251686E+00   0.3787483E-01
   0.3984614E+00
  -0.4285714E+01   0.5000000E+01  -0.2142857E+01   0.8315568E+00   0.1157911E+01   0.3336652E+00   0.7616786E+00   0.4068527E-01
   0.4280285E+00
  -0.4285714E+01   0.5000000E+01  -0.1428571E+01   0.8788575E+00   0.1174282E+01   0.3394194E+00   0.8106694E+00   0.4372483E-01
   0.4600062E+00
  -0.4285714E+01   0.5000000E+01  -0.7142859E+00   0.9474682E+00   0.1181346E+01   0.3597344E+00   0.8765199E+00   0.4701062E-01
   0.4945742E+00
  -0.4285714E+01   0.5000000E+01   0.0000000E+00   0.9474682E+00   0.1181346E+01   0.3597344E+00   0.8765199E+00   0.4701062E-01
   0.4945742E+00
  -0.3571429E+01   0.5000000E+01  -0.5000000E+01   0.8744459E+00   0.6766653E+00   0.6817750E+00   0.5475750E+00   0.9653972E-02
   0.3239302E+00
  -0.3571429E+01   0.5000000E+01  -0.4285714E+01   0.6945513E+00   0.6662287E+00   0.5460271E+00   0.4292504E+00   0.1035075E-01
   0.3473099E+00
  -0.3571429E+01   0.5000000E+01  -0.3571429E+01   0.6224005E+00   0.6480293E+00   0.4962243E+00   0.3756911E+00   0.1110582E-01
   0.3726456E+00
  -0.3571429E+01   0.5000000E+01  -0.2857143E+01   0.5957476E+00   0.6307032E+00   0.4811335E+00   0.3513200E+00   0.1192343E-01
   0.4000798E+00
  -0.3571429E+01   0.5000000E+01  -0.2142857E+01   0.5937104E+00   0.6214497E+00   0.4827074E+00   0.3456667E+00   0.1280819E-01
   0.4297670E+00
  -0.3571429E+01   0.5000000E+01  -0.1428571E+01   0.6101051E+00   0.6191176E+00   0.4968640E+00   0.3540542E+00   0.1376508E-01
   0.4618745E+00
  -0.3571429E+01   0.5000000E+01  -0.7142859E+00   0.6490097E+00   0.6220301E+00   0.5274484E+00   0.3781690E+00   0.1479948E-01
   0.4965830E+00
  -0.3571429E+01   0.5000000E+01   0.0000000E+00   0.6490097E+00   0.6220301E+00   0.5274484E+00   0.3781690E+00   0.1479948E-01
   0.4965830E+00
  -0.2857143E+01   0.5000000E+01  -0.5000000E+01   0.9054772E+00   0.4510492E+00   0.8149207E+00   0.3947066E+00  -0.1139871E-01
   0.3238735E+00
  -0.2857143E+01   0.5000000E+01  -0.4285714E+01   0.7226587E+00   0.3233941E+00   0.6851977E+00   0.2296512E+00  -0.1222141E-01
   0.3472492E+00
  -0.2857143E+01   0.5000000E+01  -0.3571429E+01   0.6566422E+00   0.2106994E+00   0.6421205E+00   0.1373327E+00  -0.1311294E-01
   0.3725803E+00
  -0.2857143E+01   0.5000000E+01  -0.2857143E+01   0.6401503E+00   0.1223477E+00   0.6353651E+00   0.7812569E-01  -0.1407832E-01
   0.4000098E+00
  -0.2857143E+01   0.5000000E+01  -0.2142857E+01   0.6477312E+00   0.6153580E-01   0.6465052E+00   0.3983351E-01  -0.1512297E-01
   0.4296917E+00
  -0.2857143E+01   0.5000000E+01  -0.1428571E+01   0.6716118E+00   0.2489173E-01   0.6714037E+00   0.1671585E-01  -0.1625280E-01
   0.4617937E+00
  -0.2857143E+01   0.5000000E+01  -0.7142859E+00   0.7146928E+00   0.2137611E-01   0.7145295E+00   0.1527619E-01  -0.1747415E-01
   0.4964960E+00
  -0.2857143E+01   0.5000000E+01   0.0000000E+00   0.7146928E+00   0.2137611E-01   0.7145295E+00   0.1527619E-01  -0.1747415E-01
   0.4964960E+00
  -0.2142857E+01   0.5000000E+01  -0.5000000E+01   0.9790561E+00   0.2870573E+00   0.9389943E+00   0.2772013E+00  -0.3240327E-01
   0.3224500E+00
  -0.2142857E+01   0.5000000E+01  -0.4285714E+01   0.8251863E+00   0.9291483E-01   0.8216268E+00   0.7656176E-01  -0.3474198E-01
   0.3457229E+00
  -0.2142857E+01   0.5000000E+01  -0.3571429E+01   0.7905949E+00  -0.5728336E-01   0.7892981E+00  -0.4526316E-01  -0.3727635E-01
   0.3709428E+00
  -0.2142857E+01   0.5000000E+01  -0.2857143E+01   0.8044466E+00  -0.1635025E+00   0.7937179E+00  -0.1309438E+00  -0.4002064E-01
   0.3982516E+00
  -0.2142857E+01   0.5000000E+01  -0.2142857E+01   0.8394701E+00  -0.2341676E+00   0.8165591E+00  -0.1947851E+00  -0.4299029E-01
   0.4278032E+00
  -0.2142857E+01   0.5000000E+01  -0.1428571E+01   0.8880107E+00  -0.2760566E+00   0.8543886E+00  -0.2420394E+00  -0.4620207E-01
   0.4597640E+00
  -0.2142857E+01   0.5000000E+01  -0.7142859E+00   0.9495747E+00  -0.2842986E+00   0.9114575E+00  -0.2663408E+00  -0.4967401E-01
   0.4943138E+00
  -0.2142857E+01   0.5000000E+01   0.0000000E+00   0.9495747E+00  -0.2842986E+00   0.9114575E+00  -0.2663408E+00  -0.4967401E-01
   0.4943138E+00
  -0.1428571E+01   0.5000000E+01  -0.5000000E+01   0.1069370E+01   0.1746345E+00   0.1053105E+01   0.1858012E+00  -0.5327109E-01
   0.3196657E+00
  -0.1428571E+01   0.5000000E+01  -0.4285714E+01   0.9533589E+00  -0.4514725E-01   0.9523875E+00  -0.4302691E-01  -0.5711594E-01
   0.3427377E+00
  -0.1428571E+01   0.5000000E+01  -0.3571429E+01   0.9524215E+00  -0.1988636E+00   0.9336509E+00  -0.1881561E+00  -0.6128245E-01
   0.3677397E+00
  -0.1428571E+01   0.5000000E+01  -0.2857143E+01   0.9959944E+00  -0.3010498E+00   0.9512003E+00  -0.2953352E+00  -0.6579407E-01
   0.3948128E+00
  -0.1428571E+01   0.5000000E+01  -0.2142857E+01   0.1057918E+01  -0.3670603E+00   0.9874464E+00  -0.3796584E+00  -0.7067619E-01
   0.4241092E+00
  -0.1428571E+01   0.5000000E+01  -0.1428571E+01   0.1131167E+01  -0.4052569E+00   0.1039544E+01  -0.4459682E+00  -0.7595637E-01
   0.4557940E+00
  -0.1428571E+01   0.5000000E+01  -0.7142859E+00   0.1212835E+01  -0.4113515E+00   0.1111662E+01  -0.4849503E+00  -0.8166424E-01
   0.4900455E+00
  -0.1428571E+01   0.5000000E+01   0.0000000E+00   0.1212835E+01  -0.4113515E+00   0.1111662E+01  -0.4849503E+00  -0.8166424E-01
   0.4900455E+00
  -0.7142859E+00   0.5000000E+01  -0.5000000E+01   0.1163160E+01   0.9760585E-01   0.1157624E+01   0.1133510E+00  -0.7391409E-01
   0.3155324E+00
  -0.7142859E+00   0.5000000E+01  -0.4285714E+01   0.1085429E+01  -0.1272705E+00   0.1076650E+01  -0.1377704E+00  -0.7924886E-01
   0.3383060E+00
  -0.7142859E+00   0.5000000E+01  -0.3571429E+01   0.1114586E+01  -0.2730054E+00   0.1073307E+01  -0.3005223E+00  -0.8502991E-01
   0.3629848E+00
  -0.7142859E+00   0.5000000E+01  -0.2857143E+01   0.1183165E+01  -0.3658693E+00   0.1104855E+01  -0.4232903E+00  -0.9128983E-01
   0.3897078E+00
  -0.7142859E+00   0.5000000E+01  -0.2142857E+01   0.1267466E+01  -0.4251279E+00   0.1154644E+01  -0.5227501E+00  -0.9806383E-01
   0.4186253E+00
  -0.7142859E+00   0.5000000E+01  -0.1428571E+01   0.1361289E+01  -0.4597280E+00   0.1219950E+01  -0.6040097E+00  -0.1053901E+00
   0.4499005E+00
  -0.7142859E+00   0.5000000E+01  -0.7142859E+00   0.1461231E+01  -0.4670948E+00   0.1304704E+01  -0.6579838E+00  -0.1133098E+00
   0.4837091E+00
  -0.7142859E+00   0.5000000E+01   0.0000000E+00   0.1461231E+01  -0.4670948E+00   0.1304704E+01  -0.6579838E+00  -0.1133098E+00
   0.4837091E+00
   0.0000000E+00   0.5000000E+01  -0.5000000E+01   0.1163160E+01   0.9760585E-01   0.1157624E+01   0.1133510E+00  -0.7391409E-01
   0.3155324E+00
   0.0000000E+00   0.5000000E+01  -0.4285714E+01   0.1085429E+01  -0.1272705E+00   0.1076650E+01  -0.1377704E+00  -0.7924886E-01
   0.3383060E+00
   0.0000000E+00   0.5000000E+01  -0.3571429E+01   0.1114586E+01  -0.2730054E+00   0.1073307E+01  -0.3005223E+00  -0.8502991E-01
   0.3629848E+00
   0.0000000E+00   0.5000000E+01  -0.2857143E+01   0.1183165E+01  -0.3658693E+00   0.1104855E+01  -0.4232903E+00  -0.9128983E-01
   0.3897078E+00
   0.0000000E+00   0.5000000E+01  -0.2142857E+01   0.1267466E+01  -0.4251279E+00   0.1154644E+01  -0.5227501E+00  -0.9806383E-01
   0.4186253E+00
   0.0000000E+00   0.5000000E+01  -0.1428571E+01   0.1361289E+01  -0.4597280E+00   0.1219950E+01  -0.6040097E+00  -0.1053901E+00
   0.4499005E+00
   0.0000000E+00   0.5000000E+01  -0.7142859E+00   0.1461231E+01  -0.4670948E+00   0.1304704E+01  -0.6579838E+00  -0.1133098E+00
   0.4837091E+00
   0.0000000E+00   0.5000000E+01   0.0000000E+00   0.1461231E+01  -0.4670948E+00   0.1304704E+01  -0.6579838E+00  -0.1133098E+00
   0.4837091E+00
   0.0000000E+00   0.5000000E+01  -0.5000000E+01   0.1251992E+01   0.4365252E-01   0.1250799E+01   0.5463525E-01  -0.9424517E-01
   0.3100674E+00
   0.0000000E+00   0.5000000E+01  -0.4285714E+01   0.1210780E+01  -0.1777138E+00   0.1191710E+01  -0.2140415E+00  -0.1010473E+00
   0.3324466E+00
   0.0000000E+00   0.5000000E+01  -0.3571429E+01   0.1266542E+01  -0.3131871E+00   0.1204933E+01  -0.3902119E+00  -0.1084186E+00
   0.3566980E+00
   0.0000000E+00   0.5000000E+01  -0.2857143E+01   0.1356503E+01  -0.3967662E+00   0.1251123E+01  -0.5242038E+00  -0.1164003E+00
   0.3829582E+00
   0.0000000E+00   0.5000000E+01  -0.2142857E+01   0.1459456E+01  -0.4489673E+00   0.1314817E+01  -0.6334554E+00  -0.1250376E+00
   0.4113749E+00
   0.0000000E+00   0.5000000E+01  -0.1428571E+01   0.1569528E+01  -0.4780741E+00   0.1393557E+01  -0.7220928E+00  -0.1343791E+00
   0.4421084E+00
   0.0000000E+00   0.5000000E+01  -0.7142859E+00   0.1683023E+01  -0.4824386E+00   0.1490933E+01  -0.7808232E+00  -0.1444772E+00
   0.4753315E+00
   0.0000000E+00   0.5000000E+01   0.0000000E+00   0.1683023E+01  -0.4824386E+00   0.1490933E+01  -0.7808232E+00  -0.1444772E+00
   0.4753315E+00
   0.7142857E+00   0.5000000E+01  -0.5000000E+01   0.1331160E+01   0.6455741E-02   0.1331132E+01   0.8593563E-02  -0.1141785E+00
   0.3032939E+00
   0.7142857E+00   0.5000000E+01  -0.4285714E+01   0.1323761E+01  -0.2074516E+00   0.1295378E+01  -0.2726508E+00  -0.1224194E+00
   0.3251843E+00
   0.7142857E+00   0.5000000E+01  -0.3571429E+01   0.1402782E+01  -0.3327293E+00   0.1325845E+01  -0.4581820E+00  -0.1313497E+00
   0.3489059E+00
   0.7142857E+00   0.5000000E+01  -0.2857143E+01   0.1511226E+01  -0.4082594E+00   0.1387023E+01  -0.5999753E+00  -0.1410196E+00
   0.3745924E+00
   0.7142857E+00   0.5000000E+01  -0.2142857E+01   0.1630753E+01  -0.4547715E+00   0.1465006E+01  -0.7163197E+00  -0.1514837E+00
   0.4023883E+00
   0.7142857E+00   0.5000000E+01  -0.1428571E+01   0.1756316E+01  -0.4797629E+00   0.1558036E+01  -0.8106608E+00  -0.1628010E+00
   0.4324505E+00
   0.7142857E+00   0.5000000E+01  -0.7142859E+00   0.1884232E+01  -0.4822271E+00   0.1669362E+01  -0.8738190E+00  -0.1750350E+00
   0.4649478E+00
   0.7142857E+00   0.5000000E+01   0.0000000E+00   0.1884232E+01  -0.4822271E+00   0.1669362E+01  -0.8738190E+00  -0.1750350E+00
   0.4649478E+00
   0.1428571E+01   0.5000000E+01  -0.5000000E+01   0.1398333E+01  -0.1876988E-01   0.1398086E+01  -0.2624500E-01  -0.1336300E+00
   0.2952405E+00
   0.1428571E+01   0.5000000E+01  -0.4285714E+01   0.1422158E+01  -0.2233017E+00   0.1386848E+01  -0.3149377E+00  -0.1432748E+00
   0.3165496E+00
   0.1428571E+01   0.5000000E+01  -0.3571429E+01   0.1521744E+01  -0.3391652E+00   0.1435054E+01  -0.5062841E+00  -0.1537264E+00
   0.3396413E+00
   0.1428571E+01   0.5000000E+01  -0.2857143E+01   0.1646729E+01  -0.4083212E+00   0.1511349E+01  -0.6538653E+00  -0.1650438E+00
   0.3646458E+00
   0.1428571E+01   0.5000000E+01  -0.2142857E+01   0.1781591E+01  -0.4511786E+00   0.1603314E+01  -0.7768211E+00  -0.1772906E+00
   0.3917036E+00
   0.1428571E+01   0.5000000E+01  -0.1428571E+01   0.1922009E+01  -0.4747866E+00   0.1709417E+01  -0.8786440E+00  -0.1905358E+00
   0.4209675E+00
   0.1428571E+01   0.5000000E+01  -0.7142859E+00   0.2063189E+01  -0.4782077E+00   0.1831743E+01  -0.9494563E+00  -0.2048540E+00
   0.4526019E+00
   0.1428571E+01   0.5000000E+01   0.0000000E+00   0.2063189E+01  -0.4782077E+00   0.1831743E+01  -0.9494563E+00  -0.2048540E+00
   0.4526019E+00
   0.2142857E+01   0.5000000E+01  -0.5000000E+01   0.1451935E+01  -0.3935121E-01   0.1450811E+01  -0.5712064E-01  -0.1525176E+00
   0.2859412E+00
   0.2142857E+01   0.5000000E+01  -0.4285714E+01   0.1505721E+01  -0.2331339E+00   0.1464987E+01  -0.3478632E+00  -0.1635256E+00
   0.3065791E+00
   0.2142857E+01   0.5000000E+01  -0.3571429E+01   0.1623695E+01  -0.3394442E+00   0.1531047E+01  -0.5406305E+00  -0.1754545E+00
   0.3289435E+00
   0.2142857E+01   0.5000000E+01  -0.2857143E+01   0.1762568E+01  -0.4021356E+00   0.1621963E+01  -0.6898416E+00  -0.1883714E+00
   0.3531603E+00
   0.2142857E+01   0.5000000E+01  -0.2142857E+01   0.1910159E+01  -0.4408768E+00   0.1727506E+01  -0.8151273E+00  -0.2023492E+00
   0.3793659E+00
   0.2142857E+01   0.5000000E+01  -0.1428571E+01   0.2062718E+01  -0.4622754E+00   0.1846215E+01  -0.9199431E+00  -0.2174665E+00
   0.4077081E+00
   0.2142857E+01   0.5000000E+01  -0.7142859E+00   0.2215775E+01  -0.4654922E+00   0.1980018E+01  -0.9945786E+00  -0.2338085E+00
   0.4383461E+00
   0.2142857E+01   0.5000000E+01   0.0000000E+00   0.2215775E+01  -0.4654922E+00   0.1980018E+01  -0.9945786E+00  -0.2338085E+00
   0.4383461E+00
   0.2857143E+01   0.5000000E+01  -0.5000000E+01   0.1490755E+01  -0.5877539E-01   0.1488181E+01  -0.8756927E-01  -0.1707615E+00
   0.2754351E+00
   0.2857143E+01   0.5000000E+01  -0.4285714E+01   0.1573982E+01  -0.2401548E+00   0.1528810E+01  -0.3743763E+00  -0.1830862E+00
   0.2953147E+00
   0.2857143E+01   0.5000000E+01  -0.3571429E+01   0.1708754E+01  -0.3366126E+00   0.1612857E+01  -0.5643874E+00  -0.1964420E+00
   0.3168574E+00
   0.2857143E+01   0.5000000E+01  -0.2857143E+01   0.1859789E+01  -0.3927703E+00   0.1718170E+01  -0.7118327E+00  -0.2109041E+00
   0.3401844E+00
   0.2857143E+01   0.5000000E+01  -0.2142857E+01   0.2017996E+01  -0.4271942E+00   0.1836643E+01  -0.8360937E+00  -0.2265539E+00
   0.3654272E+00
   0.2857143E+01   0.5000000E+01  -0.1428571E+01   0.2180616E+01  -0.4458229E+00   0.1967474E+01  -0.9402826E+00  -0.2434795E+00
   0.3927280E+00
   0.2857143E+01   0.5000000E+01  -0.7142859E+00   0.2341989E+01  -0.4479175E+00   0.2110954E+01  -0.1014291E+01  -0.2617763E+00
   0.4222403E+00
   0.2857143E+01   0.5000000E+01   0.0000000E+00   0.2341989E+01  -0.4479175E+00   0.2110954E+01  -0.1014291E+01  -0.2617763E+00
   0.4222403E+00
   0.3571429E+01   0.5000000E+01  -0.5000000E+01   0.1514053E+01  -0.8094685E-01   0.1509095E+01  -0.1224240E+00  -0.1882847E+00
   0.2637666E+00
   0.3571429E+01   0.5000000E+01  -0.4285714E+01   0.1627989E+01  -0.2475014E+00   0.1578380E+01  -0.3988284E+00  -0.2018742E+00
   0.2828040E+00
   0.3571429E+01   0.5000000E+01  -0.3571429E+01   0.1778706E+01  -0.3333898E+00   0.1680768E+01  -0.5820782E+00  -0.2166006E+00
   0.3034341E+00
   0.3571429E+01   0.5000000E+01  -0.2857143E+01   0.1940511E+01  -0.3829825E+00   0.1799929E+01  -0.7251468E+00  -0.2325467E+00
   0.3257729E+00
   0.3571429E+01   0.5000000E+01  -0.2142857E+01   0.2107555E+01  -0.4130046E+00   0.1930349E+01  -0.8458947E+00  -0.2498025E+00
   0.3499463E+00
   0.3571429E+01   0.5000000E+01  -0.1428571E+01   0.2278210E+01  -0.4287650E+00   0.2071987E+01  -0.9471612E+00  -0.2684650E+00
   0.3760906E+00
   0.3571429E+01   0.5000000E+01  -0.7142859E+00   0.2448311E+01  -0.4298809E+00   0.2225552E+01  -0.1020364E+01  -0.2886393E+00
   0.4043526E+00
   0.3571429E+01   0.5000000E+01   0.0000000E+00   0.2448311E+01  -0.4298809E+00   0.2225552E+01  -0.1020364E+01  -0.2886393E+00
   0.4043526E+00
   0.4285714E+01   0.5000000E+01  -0.5000000E+01   0.1529390E+01  -0.1207005E+00   0.1518263E+01  -0.1841503E+00  -0.2050134E+00
   0.2509850E+00
   0.4285714E+01   0.5000000E+01  -0.4285714E+01   0.1682825E+01  -0.2641860E+00   0.1624440E+01  -0.4394252E+00  -0.2198103E+00
   0.2690999E+00
   0.4285714E+01   0.5000000E+01  -0.3571429E+01   0.1852563E+01  -0.3378322E+00   0.1747848E+01  -0.6140185E+00  -0.2358451E+00
   0.2887303E+00
   0.4285714E+01   0.5000000E+01  -0.2857143E+01   0.2027591E+01  -0.3812750E+00   0.1881991E+01  -0.7544751E+00  -0.2532080E+00
   0.3099866E+00
   0.4285714E+01   0.5000000E+01  -0.2142857E+01   0.2205599E+01  -0.4076092E+00   0.2024897E+01  -0.8743337E+00  -0.2719968E+00
   0.3329886E+00
   0.4285714E+01   0.5000000E+01  -0.1428571E+01   0.2385817E+01  -0.4212745E+00   0.2177221E+01  -0.9756172E+00  -0.2923175E+00
   0.3578659E+00
   0.4285714E+01   0.5000000E+01  -0.7142859E+00   0.2564740E+01  -0.4220972E+00   0.2339638E+01  -0.1050709E+01  -0.3142843E+00
   0.3847584E+00
   0.4285714E+01   0.5000000E+01   0.0000000E+00   0.2564740E+01  -0.4220972E+00   0.2339638E+01  -0.1050709E+01  -0.3142843E+00
   0.3847584E+00
   0.5000000E+01   0.5000000E+01  -0.5000000E+01   0.1529390E+01  -0.1207005E+00   0.1518263E+01  -0.1841503E+00  -0.2050134E+00
   0.2509850E+00
   0.5000000E+01   0.5000000E+01  -0.4285714E+01   0.1682825E+01  -0.2641860E+00   0.1624440E+01  -0.4394252E+00  -0.2198103E+00
   0.2690999E+00
   0.5000000E+01   0.5000000E+01  -0.3571429E+01   0.1852563E+01  -0.3378322E+00   0.1747848E+01  -0.6140185E+00  -0.2358451E+00
   0.2887303E+00
   0.5000000E+01   0.5000000E+01  -0.2857143E+01   0.2027591E+01  -0.3812750E+00   0.1881991E+01  -0.7544751E+00  -0.2532080E+00
   0.3099866E+00
   0.5000000E+01   0.5000000E+01  -0.2142857E+01   0.2205599E+01  -0.4076092E+00   0.2024897E+01  -0.8743337E+00  -0.2719968E+00
   0.3329886E+00
   0.5000000E+01   0.5000000E+01  -0.1428571E+01   0.2385817E+01  -0.4212745E+00   0.2177221E+01  -0.9756172E+00  -0.2923175E+00
   0.3578659E+00
   0.5000000E+01   0.5000000E+01  -0.7142859E+00   0.2564740E+01  -0.4220972E+00   0.2339638E+01  -0.1050709E+01  -0.3142843E+00
   0.3847584E+00
   0.5000000E+01   0.5000000E+01   0.0000000E+00   0.2564740E+01  -0.4220972E+00   0.2339638E+01  -0.1050709E+01  -0.3142843E+00
   0.3847584E+00
   0.5000000E+01   0.5000000E+01  -0.5000000E+01   0.1738602E+01  -0.2158077E+00   0.1698273E+01  -0.3722981E+00  -0.3610289E+00
   0.4298022E+00
   0.5000000E+01   0.5000000E+01  -0.4285714E+01   0.1983546E+01  -0.3543613E+00   0.1860305E+01  -0.6882734E+00  -0.3870863E+00
   0.4608234E+00
   0.5000000E+01   0.5000000E+01  -0.3571429E+01   0.2215290E+01  -0.4207710E+00   0.2022059E+01  -0.9048667E+00  -0.4153235E+00
   0.4944396E+00
   0.5000000E+01   0.5000000E+01  -0.2857143E+01   0.2441618E+01  -0.4588445E+00   0.2189069E+01  -0.1081423E+01  -0.4458996E+00
   0.5308402E+00
   0.5000000E+01   0.5000000E+01  -0.2142857E+01   0.2665575E+01  -0.4815876E+00   0.2362395E+01  -0.1234659E+01  -0.4789869E+00
   0.5702303E+00
   0.5000000E+01   0.5000000E+01  -0.1428571E+01   0.2887875E+01  -0.4933136E+00   0.2543550E+01  -0.1367545E+01  -0.5147716E+00
   0.6128318E+00
   0.5000000E+01   0.5000000E+01  -0.7142859E+00   0.3101362E+01  -0.4937764E+00   0.2730902E+01  -0.1469904E+01  -0.5534551E+00
   0.6588842E+00
   0.5000000E+01   0.5000000E+01   0.0000000E+00   0.3101362E+01  -0.4937764E+00   0.2730902E+01  -0.1469904E+01  -0.5534551E+00
   0.6588842E+00
   0.5000000E+01   0.4285714E+01  -0.5000000E+01   0.1896305E+01  -0.2470768E+00   0.1838717E+01  -0.4637805E+00  -0.3446556E+00
   0.4430399E+00